
     Program CP v.7.1 starts on 30Apr2023 at  8: 2:50 

     This program is part of the open-source Quantum ESPRESSO suite
     for quantum simulation of materials; please cite
         "P. Giannozzi et al., J. Phys.:Condens. Matter 21 395502 (2009);
         "P. Giannozzi et al., J. Phys.:Condens. Matter 29 465901 (2017);
         "P. Giannozzi et al., J. Chem. Phys. 152 154105 (2020);
          URL http://www.quantum-espresso.org", 
     in publications or presentations arising from this work. More details at
     http://www.quantum-espresso.org/quote

     Parallel version (MPI), running on     4 processors

     MPI processes distributed on     1 nodes
     R & G space division:  proc/nbgrp/npool/nimage =       4
     483568 MiB available memory on the printing compute node when the environment starts
 

     GPU acceleration is ACTIVE.

     Reading input from ./cp.in
Warning: card  &CELL ignored
Warning: card CELL_DYNAMICS = 'NONE', ignored
Warning: card / ignored

   Job Title: ceo2


   Atomic Pseudopotentials Parameters
   ----------------------------------

   Reading pseudopotential for specie #  1 from file :
   ./Zr.pbe-nsp-van.UPF
   file type is xml

   Reading pseudopotential for specie #  2 from file :
   ./O.pbe-van_bm.UPF
   file type is xml


   Main Simulation Parameters (from input)
   ---------------------------------------
   Restart Mode       =      -1   from_scratch   
   Number of MD Steps =      10
   Print out every            5 MD Steps
   Reads from unit    =      61
   Writes to unit     =      -1
   MD Simulation time step            =       1.00
   Electronic fictitious mass (emass) =     800.00
   emass cut-off                      =       2.50

   Simulation Cell Parameters (from input)
   external pressure       =            0.00 [KBar]
   wmass (calculated)      =      4498116.07 [AU]
   ibrav =   14
   alat  =    38.50279900
   a1    =    38.50279900    0.00000000    0.00000000
   a2    =     0.00000000   41.00548094    0.00000000
   a3    =     0.00000000    0.00000000   52.94134863
 
   b1    =     0.02597214    0.00000000    0.00000000
   b2    =     0.00000000    0.02438698    0.00000000
   b3    =     0.00000000    0.00000000    0.01888883
   omega =   83585.16658446

   Energy Cut-offs
   ---------------
   Ecutwfc =   30.0 Ry,      Ecutrho =  200.0 Ry,      Ecuts =  120.0 Ry
   Gcutwfc =   33.6     ,    Gcutrho =   86.7          Gcuts =   67.1
   modified kinetic energy functional, with parameters:
   ecutz =  25.0000  ecsig =  5.0000  ecfix =  25.00
   NOTA BENE: refg, mmx =   0.050000  4800
   Eigenvalues calculated without the kinetic term contribution
   Orthog. with lagrange multipliers : eps =   0.20E-06,  max = 100
   verlet algorithm for electron dynamics
   with friction frice =  0.2000 , grease =  1.0000
   Electron dynamics : the temperature is not controlled
   initial random displacement of el. coordinates with  amplitude=  0.020000

   Electronic states
   -----------------
   Number of Electrons=  6336, of States =  3168
   Occupation numbers :
   2.00 2.00 2.00 2.00 2.00 2.00 2.00 2.00 2.00 2.00
   2.00 2.00 2.00 2.00 2.00 2.00 2.00 2.00 2.00 2.00
   2.00 2.00 2.00 2.00 2.00 2.00 2.00 2.00 2.00 2.00
   2.00 2.00 2.00 2.00 2.00 2.00 2.00 2.00 2.00 2.00
   2.00 2.00 2.00 2.00 2.00 2.00 2.00 2.00 2.00 2.00
   2.00 2.00 2.00 2.00 2.00 2.00 2.00 2.00 2.00 2.00
   2.00 2.00 2.00 2.00 2.00 2.00 2.00 2.00 2.00 2.00
   2.00 2.00 2.00 2.00 2.00 2.00 2.00 2.00 2.00 2.00
   2.00 2.00 2.00 2.00 2.00 2.00 2.00 2.00 2.00 2.00
   2.00 2.00 2.00 2.00 2.00 2.00 2.00 2.00 2.00 2.00
   2.00 2.00 2.00 2.00 2.00 2.00 2.00 2.00 2.00 2.00
   2.00 2.00 2.00 2.00 2.00 2.00 2.00 2.00 2.00 2.00
   2.00 2.00 2.00 2.00 2.00 2.00 2.00 2.00 2.00 2.00
   2.00 2.00 2.00 2.00 2.00 2.00 2.00 2.00 2.00 2.00
   2.00 2.00 2.00 2.00 2.00 2.00 2.00 2.00 2.00 2.00
   2.00 2.00 2.00 2.00 2.00 2.00 2.00 2.00 2.00 2.00
   2.00 2.00 2.00 2.00 2.00 2.00 2.00 2.00 2.00 2.00
   2.00 2.00 2.00 2.00 2.00 2.00 2.00 2.00 2.00 2.00
   2.00 2.00 2.00 2.00 2.00 2.00 2.00 2.00 2.00 2.00
   2.00 2.00 2.00 2.00 2.00 2.00 2.00 2.00 2.00 2.00
   2.00 2.00 2.00 2.00 2.00 2.00 2.00 2.00 2.00 2.00
   2.00 2.00 2.00 2.00 2.00 2.00 2.00 2.00 2.00 2.00
   2.00 2.00 2.00 2.00 2.00 2.00 2.00 2.00 2.00 2.00
   2.00 2.00 2.00 2.00 2.00 2.00 2.00 2.00 2.00 2.00
   2.00 2.00 2.00 2.00 2.00 2.00 2.00 2.00 2.00 2.00
   2.00 2.00 2.00 2.00 2.00 2.00 2.00 2.00 2.00 2.00
   2.00 2.00 2.00 2.00 2.00 2.00 2.00 2.00 2.00 2.00
   2.00 2.00 2.00 2.00 2.00 2.00 2.00 2.00 2.00 2.00
   2.00 2.00 2.00 2.00 2.00 2.00 2.00 2.00 2.00 2.00
   2.00 2.00 2.00 2.00 2.00 2.00 2.00 2.00 2.00 2.00
   2.00 2.00 2.00 2.00 2.00 2.00 2.00 2.00 2.00 2.00
   2.00 2.00 2.00 2.00 2.00 2.00 2.00 2.00 2.00 2.00
   2.00 2.00 2.00 2.00 2.00 2.00 2.00 2.00 2.00 2.00
   2.00 2.00 2.00 2.00 2.00 2.00 2.00 2.00 2.00 2.00
   2.00 2.00 2.00 2.00 2.00 2.00 2.00 2.00 2.00 2.00
   2.00 2.00 2.00 2.00 2.00 2.00 2.00 2.00 2.00 2.00
   2.00 2.00 2.00 2.00 2.00 2.00 2.00 2.00 2.00 2.00
   2.00 2.00 2.00 2.00 2.00 2.00 2.00 2.00 2.00 2.00
   2.00 2.00 2.00 2.00 2.00 2.00 2.00 2.00 2.00 2.00
   2.00 2.00 2.00 2.00 2.00 2.00 2.00 2.00 2.00 2.00
   2.00 2.00 2.00 2.00 2.00 2.00 2.00 2.00 2.00 2.00
   2.00 2.00 2.00 2.00 2.00 2.00 2.00 2.00 2.00 2.00
   2.00 2.00 2.00 2.00 2.00 2.00 2.00 2.00 2.00 2.00
   2.00 2.00 2.00 2.00 2.00 2.00 2.00 2.00 2.00 2.00
   2.00 2.00 2.00 2.00 2.00 2.00 2.00 2.00 2.00 2.00
   2.00 2.00 2.00 2.00 2.00 2.00 2.00 2.00 2.00 2.00
   2.00 2.00 2.00 2.00 2.00 2.00 2.00 2.00 2.00 2.00
   2.00 2.00 2.00 2.00 2.00 2.00 2.00 2.00 2.00 2.00
   2.00 2.00 2.00 2.00 2.00 2.00 2.00 2.00 2.00 2.00
   2.00 2.00 2.00 2.00 2.00 2.00 2.00 2.00 2.00 2.00
   2.00 2.00 2.00 2.00 2.00 2.00 2.00 2.00 2.00 2.00
   2.00 2.00 2.00 2.00 2.00 2.00 2.00 2.00 2.00 2.00
   2.00 2.00 2.00 2.00 2.00 2.00 2.00 2.00 2.00 2.00
   2.00 2.00 2.00 2.00 2.00 2.00 2.00 2.00 2.00 2.00
   2.00 2.00 2.00 2.00 2.00 2.00 2.00 2.00 2.00 2.00
   2.00 2.00 2.00 2.00 2.00 2.00 2.00 2.00 2.00 2.00
   2.00 2.00 2.00 2.00 2.00 2.00 2.00 2.00 2.00 2.00
   2.00 2.00 2.00 2.00 2.00 2.00 2.00 2.00 2.00 2.00
   2.00 2.00 2.00 2.00 2.00 2.00 2.00 2.00 2.00 2.00
   2.00 2.00 2.00 2.00 2.00 2.00 2.00 2.00 2.00 2.00
   2.00 2.00 2.00 2.00 2.00 2.00 2.00 2.00 2.00 2.00
   2.00 2.00 2.00 2.00 2.00 2.00 2.00 2.00 2.00 2.00
   2.00 2.00 2.00 2.00 2.00 2.00 2.00 2.00 2.00 2.00
   2.00 2.00 2.00 2.00 2.00 2.00 2.00 2.00 2.00 2.00
   2.00 2.00 2.00 2.00 2.00 2.00 2.00 2.00 2.00 2.00
   2.00 2.00 2.00 2.00 2.00 2.00 2.00 2.00 2.00 2.00
   2.00 2.00 2.00 2.00 2.00 2.00 2.00 2.00 2.00 2.00
   2.00 2.00 2.00 2.00 2.00 2.00 2.00 2.00 2.00 2.00
   2.00 2.00 2.00 2.00 2.00 2.00 2.00 2.00 2.00 2.00
   2.00 2.00 2.00 2.00 2.00 2.00 2.00 2.00 2.00 2.00
   2.00 2.00 2.00 2.00 2.00 2.00 2.00 2.00 2.00 2.00
   2.00 2.00 2.00 2.00 2.00 2.00 2.00 2.00 2.00 2.00
   2.00 2.00 2.00 2.00 2.00 2.00 2.00 2.00 2.00 2.00
   2.00 2.00 2.00 2.00 2.00 2.00 2.00 2.00 2.00 2.00
   2.00 2.00 2.00 2.00 2.00 2.00 2.00 2.00 2.00 2.00
   2.00 2.00 2.00 2.00 2.00 2.00 2.00 2.00 2.00 2.00
   2.00 2.00 2.00 2.00 2.00 2.00 2.00 2.00 2.00 2.00
   2.00 2.00 2.00 2.00 2.00 2.00 2.00 2.00 2.00 2.00
   2.00 2.00 2.00 2.00 2.00 2.00 2.00 2.00 2.00 2.00
   2.00 2.00 2.00 2.00 2.00 2.00 2.00 2.00 2.00 2.00
   2.00 2.00 2.00 2.00 2.00 2.00 2.00 2.00 2.00 2.00
   2.00 2.00 2.00 2.00 2.00 2.00 2.00 2.00 2.00 2.00
   2.00 2.00 2.00 2.00 2.00 2.00 2.00 2.00 2.00 2.00
   2.00 2.00 2.00 2.00 2.00 2.00 2.00 2.00 2.00 2.00
   2.00 2.00 2.00 2.00 2.00 2.00 2.00 2.00 2.00 2.00
   2.00 2.00 2.00 2.00 2.00 2.00 2.00 2.00 2.00 2.00
   2.00 2.00 2.00 2.00 2.00 2.00 2.00 2.00 2.00 2.00
   2.00 2.00 2.00 2.00 2.00 2.00 2.00 2.00 2.00 2.00
   2.00 2.00 2.00 2.00 2.00 2.00 2.00 2.00 2.00 2.00
   2.00 2.00 2.00 2.00 2.00 2.00 2.00 2.00 2.00 2.00
   2.00 2.00 2.00 2.00 2.00 2.00 2.00 2.00 2.00 2.00
   2.00 2.00 2.00 2.00 2.00 2.00 2.00 2.00 2.00 2.00
   2.00 2.00 2.00 2.00 2.00 2.00 2.00 2.00 2.00 2.00
   2.00 2.00 2.00 2.00 2.00 2.00 2.00 2.00 2.00 2.00
   2.00 2.00 2.00 2.00 2.00 2.00 2.00 2.00 2.00 2.00
   2.00 2.00 2.00 2.00 2.00 2.00 2.00 2.00 2.00 2.00
   2.00 2.00 2.00 2.00 2.00 2.00 2.00 2.00 2.00 2.00
   2.00 2.00 2.00 2.00 2.00 2.00 2.00 2.00 2.00 2.00
   2.00 2.00 2.00 2.00 2.00 2.00 2.00 2.00 2.00 2.00
   2.00 2.00 2.00 2.00 2.00 2.00 2.00 2.00 2.00 2.00
   2.00 2.00 2.00 2.00 2.00 2.00 2.00 2.00 2.00 2.00
   2.00 2.00 2.00 2.00 2.00 2.00 2.00 2.00 2.00 2.00
   2.00 2.00 2.00 2.00 2.00 2.00 2.00 2.00 2.00 2.00
   2.00 2.00 2.00 2.00 2.00 2.00 2.00 2.00 2.00 2.00
   2.00 2.00 2.00 2.00 2.00 2.00 2.00 2.00 2.00 2.00
   2.00 2.00 2.00 2.00 2.00 2.00 2.00 2.00 2.00 2.00
   2.00 2.00 2.00 2.00 2.00 2.00 2.00 2.00 2.00 2.00
   2.00 2.00 2.00 2.00 2.00 2.00 2.00 2.00 2.00 2.00
   2.00 2.00 2.00 2.00 2.00 2.00 2.00 2.00 2.00 2.00
   2.00 2.00 2.00 2.00 2.00 2.00 2.00 2.00 2.00 2.00
   2.00 2.00 2.00 2.00 2.00 2.00 2.00 2.00 2.00 2.00
   2.00 2.00 2.00 2.00 2.00 2.00 2.00 2.00 2.00 2.00
   2.00 2.00 2.00 2.00 2.00 2.00 2.00 2.00 2.00 2.00
   2.00 2.00 2.00 2.00 2.00 2.00 2.00 2.00 2.00 2.00
   2.00 2.00 2.00 2.00 2.00 2.00 2.00 2.00 2.00 2.00
   2.00 2.00 2.00 2.00 2.00 2.00 2.00 2.00 2.00 2.00
   2.00 2.00 2.00 2.00 2.00 2.00 2.00 2.00 2.00 2.00
   2.00 2.00 2.00 2.00 2.00 2.00 2.00 2.00 2.00 2.00
   2.00 2.00 2.00 2.00 2.00 2.00 2.00 2.00 2.00 2.00
   2.00 2.00 2.00 2.00 2.00 2.00 2.00 2.00 2.00 2.00
   2.00 2.00 2.00 2.00 2.00 2.00 2.00 2.00 2.00 2.00
   2.00 2.00 2.00 2.00 2.00 2.00 2.00 2.00 2.00 2.00
   2.00 2.00 2.00 2.00 2.00 2.00 2.00 2.00 2.00 2.00
   2.00 2.00 2.00 2.00 2.00 2.00 2.00 2.00 2.00 2.00
   2.00 2.00 2.00 2.00 2.00 2.00 2.00 2.00 2.00 2.00
   2.00 2.00 2.00 2.00 2.00 2.00 2.00 2.00 2.00 2.00
   2.00 2.00 2.00 2.00 2.00 2.00 2.00 2.00 2.00 2.00
   2.00 2.00 2.00 2.00 2.00 2.00 2.00 2.00 2.00 2.00
   2.00 2.00 2.00 2.00 2.00 2.00 2.00 2.00 2.00 2.00
   2.00 2.00 2.00 2.00 2.00 2.00 2.00 2.00 2.00 2.00
   2.00 2.00 2.00 2.00 2.00 2.00 2.00 2.00 2.00 2.00
   2.00 2.00 2.00 2.00 2.00 2.00 2.00 2.00 2.00 2.00
   2.00 2.00 2.00 2.00 2.00 2.00 2.00 2.00 2.00 2.00
   2.00 2.00 2.00 2.00 2.00 2.00 2.00 2.00 2.00 2.00
   2.00 2.00 2.00 2.00 2.00 2.00 2.00 2.00 2.00 2.00
   2.00 2.00 2.00 2.00 2.00 2.00 2.00 2.00 2.00 2.00
   2.00 2.00 2.00 2.00 2.00 2.00 2.00 2.00 2.00 2.00
   2.00 2.00 2.00 2.00 2.00 2.00 2.00 2.00 2.00 2.00
   2.00 2.00 2.00 2.00 2.00 2.00 2.00 2.00 2.00 2.00
   2.00 2.00 2.00 2.00 2.00 2.00 2.00 2.00 2.00 2.00
   2.00 2.00 2.00 2.00 2.00 2.00 2.00 2.00 2.00 2.00
   2.00 2.00 2.00 2.00 2.00 2.00 2.00 2.00 2.00 2.00
   2.00 2.00 2.00 2.00 2.00 2.00 2.00 2.00 2.00 2.00
   2.00 2.00 2.00 2.00 2.00 2.00 2.00 2.00 2.00 2.00
   2.00 2.00 2.00 2.00 2.00 2.00 2.00 2.00 2.00 2.00
   2.00 2.00 2.00 2.00 2.00 2.00 2.00 2.00 2.00 2.00
   2.00 2.00 2.00 2.00 2.00 2.00 2.00 2.00 2.00 2.00
   2.00 2.00 2.00 2.00 2.00 2.00 2.00 2.00 2.00 2.00
   2.00 2.00 2.00 2.00 2.00 2.00 2.00 2.00 2.00 2.00
   2.00 2.00 2.00 2.00 2.00 2.00 2.00 2.00 2.00 2.00
   2.00 2.00 2.00 2.00 2.00 2.00 2.00 2.00 2.00 2.00
   2.00 2.00 2.00 2.00 2.00 2.00 2.00 2.00 2.00 2.00
   2.00 2.00 2.00 2.00 2.00 2.00 2.00 2.00 2.00 2.00
   2.00 2.00 2.00 2.00 2.00 2.00 2.00 2.00 2.00 2.00
   2.00 2.00 2.00 2.00 2.00 2.00 2.00 2.00 2.00 2.00
   2.00 2.00 2.00 2.00 2.00 2.00 2.00 2.00 2.00 2.00
   2.00 2.00 2.00 2.00 2.00 2.00 2.00 2.00 2.00 2.00
   2.00 2.00 2.00 2.00 2.00 2.00 2.00 2.00 2.00 2.00
   2.00 2.00 2.00 2.00 2.00 2.00 2.00 2.00 2.00 2.00
   2.00 2.00 2.00 2.00 2.00 2.00 2.00 2.00 2.00 2.00
   2.00 2.00 2.00 2.00 2.00 2.00 2.00 2.00 2.00 2.00
   2.00 2.00 2.00 2.00 2.00 2.00 2.00 2.00 2.00 2.00
   2.00 2.00 2.00 2.00 2.00 2.00 2.00 2.00 2.00 2.00
   2.00 2.00 2.00 2.00 2.00 2.00 2.00 2.00 2.00 2.00
   2.00 2.00 2.00 2.00 2.00 2.00 2.00 2.00 2.00 2.00
   2.00 2.00 2.00 2.00 2.00 2.00 2.00 2.00 2.00 2.00
   2.00 2.00 2.00 2.00 2.00 2.00 2.00 2.00 2.00 2.00
   2.00 2.00 2.00 2.00 2.00 2.00 2.00 2.00 2.00 2.00
   2.00 2.00 2.00 2.00 2.00 2.00 2.00 2.00 2.00 2.00
   2.00 2.00 2.00 2.00 2.00 2.00 2.00 2.00 2.00 2.00
   2.00 2.00 2.00 2.00 2.00 2.00 2.00 2.00 2.00 2.00
   2.00 2.00 2.00 2.00 2.00 2.00 2.00 2.00 2.00 2.00
   2.00 2.00 2.00 2.00 2.00 2.00 2.00 2.00 2.00 2.00
   2.00 2.00 2.00 2.00 2.00 2.00 2.00 2.00 2.00 2.00
   2.00 2.00 2.00 2.00 2.00 2.00 2.00 2.00 2.00 2.00
   2.00 2.00 2.00 2.00 2.00 2.00 2.00 2.00 2.00 2.00
   2.00 2.00 2.00 2.00 2.00 2.00 2.00 2.00 2.00 2.00
   2.00 2.00 2.00 2.00 2.00 2.00 2.00 2.00 2.00 2.00
   2.00 2.00 2.00 2.00 2.00 2.00 2.00 2.00 2.00 2.00
   2.00 2.00 2.00 2.00 2.00 2.00 2.00 2.00 2.00 2.00
   2.00 2.00 2.00 2.00 2.00 2.00 2.00 2.00 2.00 2.00
   2.00 2.00 2.00 2.00 2.00 2.00 2.00 2.00 2.00 2.00
   2.00 2.00 2.00 2.00 2.00 2.00 2.00 2.00 2.00 2.00
   2.00 2.00 2.00 2.00 2.00 2.00 2.00 2.00 2.00 2.00
   2.00 2.00 2.00 2.00 2.00 2.00 2.00 2.00 2.00 2.00
   2.00 2.00 2.00 2.00 2.00 2.00 2.00 2.00 2.00 2.00
   2.00 2.00 2.00 2.00 2.00 2.00 2.00 2.00 2.00 2.00
   2.00 2.00 2.00 2.00 2.00 2.00 2.00 2.00 2.00 2.00
   2.00 2.00 2.00 2.00 2.00 2.00 2.00 2.00 2.00 2.00
   2.00 2.00 2.00 2.00 2.00 2.00 2.00 2.00 2.00 2.00
   2.00 2.00 2.00 2.00 2.00 2.00 2.00 2.00 2.00 2.00
   2.00 2.00 2.00 2.00 2.00 2.00 2.00 2.00 2.00 2.00
   2.00 2.00 2.00 2.00 2.00 2.00 2.00 2.00 2.00 2.00
   2.00 2.00 2.00 2.00 2.00 2.00 2.00 2.00 2.00 2.00
   2.00 2.00 2.00 2.00 2.00 2.00 2.00 2.00 2.00 2.00
   2.00 2.00 2.00 2.00 2.00 2.00 2.00 2.00 2.00 2.00
   2.00 2.00 2.00 2.00 2.00 2.00 2.00 2.00 2.00 2.00
   2.00 2.00 2.00 2.00 2.00 2.00 2.00 2.00 2.00 2.00
   2.00 2.00 2.00 2.00 2.00 2.00 2.00 2.00 2.00 2.00
   2.00 2.00 2.00 2.00 2.00 2.00 2.00 2.00 2.00 2.00
   2.00 2.00 2.00 2.00 2.00 2.00 2.00 2.00 2.00 2.00
   2.00 2.00 2.00 2.00 2.00 2.00 2.00 2.00 2.00 2.00
   2.00 2.00 2.00 2.00 2.00 2.00 2.00 2.00 2.00 2.00
   2.00 2.00 2.00 2.00 2.00 2.00 2.00 2.00 2.00 2.00
   2.00 2.00 2.00 2.00 2.00 2.00 2.00 2.00 2.00 2.00
   2.00 2.00 2.00 2.00 2.00 2.00 2.00 2.00 2.00 2.00
   2.00 2.00 2.00 2.00 2.00 2.00 2.00 2.00 2.00 2.00
   2.00 2.00 2.00 2.00 2.00 2.00 2.00 2.00 2.00 2.00
   2.00 2.00 2.00 2.00 2.00 2.00 2.00 2.00 2.00 2.00
   2.00 2.00 2.00 2.00 2.00 2.00 2.00 2.00 2.00 2.00
   2.00 2.00 2.00 2.00 2.00 2.00 2.00 2.00 2.00 2.00
   2.00 2.00 2.00 2.00 2.00 2.00 2.00 2.00 2.00 2.00
   2.00 2.00 2.00 2.00 2.00 2.00 2.00 2.00 2.00 2.00
   2.00 2.00 2.00 2.00 2.00 2.00 2.00 2.00 2.00 2.00
   2.00 2.00 2.00 2.00 2.00 2.00 2.00 2.00 2.00 2.00
   2.00 2.00 2.00 2.00 2.00 2.00 2.00 2.00 2.00 2.00
   2.00 2.00 2.00 2.00 2.00 2.00 2.00 2.00 2.00 2.00
   2.00 2.00 2.00 2.00 2.00 2.00 2.00 2.00 2.00 2.00
   2.00 2.00 2.00 2.00 2.00 2.00 2.00 2.00 2.00 2.00
   2.00 2.00 2.00 2.00 2.00 2.00 2.00 2.00 2.00 2.00
   2.00 2.00 2.00 2.00 2.00 2.00 2.00 2.00 2.00 2.00
   2.00 2.00 2.00 2.00 2.00 2.00 2.00 2.00 2.00 2.00
   2.00 2.00 2.00 2.00 2.00 2.00 2.00 2.00 2.00 2.00
   2.00 2.00 2.00 2.00 2.00 2.00 2.00 2.00 2.00 2.00
   2.00 2.00 2.00 2.00 2.00 2.00 2.00 2.00 2.00 2.00
   2.00 2.00 2.00 2.00 2.00 2.00 2.00 2.00 2.00 2.00
   2.00 2.00 2.00 2.00 2.00 2.00 2.00 2.00 2.00 2.00
   2.00 2.00 2.00 2.00 2.00 2.00 2.00 2.00 2.00 2.00
   2.00 2.00 2.00 2.00 2.00 2.00 2.00 2.00 2.00 2.00
   2.00 2.00 2.00 2.00 2.00 2.00 2.00 2.00 2.00 2.00
   2.00 2.00 2.00 2.00 2.00 2.00 2.00 2.00 2.00 2.00
   2.00 2.00 2.00 2.00 2.00 2.00 2.00 2.00 2.00 2.00
   2.00 2.00 2.00 2.00 2.00 2.00 2.00 2.00 2.00 2.00
   2.00 2.00 2.00 2.00 2.00 2.00 2.00 2.00 2.00 2.00
   2.00 2.00 2.00 2.00 2.00 2.00 2.00 2.00 2.00 2.00
   2.00 2.00 2.00 2.00 2.00 2.00 2.00 2.00 2.00 2.00
   2.00 2.00 2.00 2.00 2.00 2.00 2.00 2.00 2.00 2.00
   2.00 2.00 2.00 2.00 2.00 2.00 2.00 2.00 2.00 2.00
   2.00 2.00 2.00 2.00 2.00 2.00 2.00 2.00 2.00 2.00
   2.00 2.00 2.00 2.00 2.00 2.00 2.00 2.00 2.00 2.00
   2.00 2.00 2.00 2.00 2.00 2.00 2.00 2.00 2.00 2.00
   2.00 2.00 2.00 2.00 2.00 2.00 2.00 2.00 2.00 2.00
   2.00 2.00 2.00 2.00 2.00 2.00 2.00 2.00 2.00 2.00
   2.00 2.00 2.00 2.00 2.00 2.00 2.00 2.00 2.00 2.00
   2.00 2.00 2.00 2.00 2.00 2.00 2.00 2.00 2.00 2.00
   2.00 2.00 2.00 2.00 2.00 2.00 2.00 2.00 2.00 2.00
   2.00 2.00 2.00 2.00 2.00 2.00 2.00 2.00 2.00 2.00
   2.00 2.00 2.00 2.00 2.00 2.00 2.00 2.00 2.00 2.00
   2.00 2.00 2.00 2.00 2.00 2.00 2.00 2.00 2.00 2.00
   2.00 2.00 2.00 2.00 2.00 2.00 2.00 2.00 2.00 2.00
   2.00 2.00 2.00 2.00 2.00 2.00 2.00 2.00 2.00 2.00
   2.00 2.00 2.00 2.00 2.00 2.00 2.00 2.00 2.00 2.00
   2.00 2.00 2.00 2.00 2.00 2.00 2.00 2.00 2.00 2.00
   2.00 2.00 2.00 2.00 2.00 2.00 2.00 2.00 2.00 2.00
   2.00 2.00 2.00 2.00 2.00 2.00 2.00 2.00 2.00 2.00
   2.00 2.00 2.00 2.00 2.00 2.00 2.00 2.00 2.00 2.00
   2.00 2.00 2.00 2.00 2.00 2.00 2.00 2.00 2.00 2.00
   2.00 2.00 2.00 2.00 2.00 2.00 2.00 2.00 2.00 2.00
   2.00 2.00 2.00 2.00 2.00 2.00 2.00 2.00 2.00 2.00
   2.00 2.00 2.00 2.00 2.00 2.00 2.00 2.00 2.00 2.00
   2.00 2.00 2.00 2.00 2.00 2.00 2.00 2.00 2.00 2.00
   2.00 2.00 2.00 2.00 2.00 2.00 2.00 2.00 2.00 2.00
   2.00 2.00 2.00 2.00 2.00 2.00 2.00 2.00 2.00 2.00
   2.00 2.00 2.00 2.00 2.00 2.00 2.00 2.00 2.00 2.00
   2.00 2.00 2.00 2.00 2.00 2.00 2.00 2.00 2.00 2.00
   2.00 2.00 2.00 2.00 2.00 2.00 2.00 2.00 2.00 2.00
   2.00 2.00 2.00 2.00 2.00 2.00 2.00 2.00 2.00 2.00
   2.00 2.00 2.00 2.00 2.00 2.00 2.00 2.00 2.00 2.00
   2.00 2.00 2.00 2.00 2.00 2.00 2.00 2.00 2.00 2.00
   2.00 2.00 2.00 2.00 2.00 2.00 2.00 2.00 2.00 2.00
   2.00 2.00 2.00 2.00 2.00 2.00 2.00 2.00 2.00 2.00
   2.00 2.00 2.00 2.00 2.00 2.00 2.00 2.00 2.00 2.00
   2.00 2.00 2.00 2.00 2.00 2.00 2.00 2.00 2.00 2.00
   2.00 2.00 2.00 2.00 2.00 2.00 2.00 2.00 2.00 2.00
   2.00 2.00 2.00 2.00 2.00 2.00 2.00 2.00 2.00 2.00
   2.00 2.00 2.00 2.00 2.00 2.00 2.00 2.00 2.00 2.00
   2.00 2.00 2.00 2.00 2.00 2.00 2.00 2.00 2.00 2.00
   2.00 2.00 2.00 2.00 2.00 2.00 2.00 2.00 2.00 2.00
   2.00 2.00 2.00 2.00 2.00 2.00 2.00 2.00 2.00 2.00
   2.00 2.00 2.00 2.00 2.00 2.00 2.00 2.00 2.00 2.00
   2.00 2.00 2.00 2.00 2.00 2.00 2.00 2.00 2.00 2.00
   2.00 2.00 2.00 2.00 2.00 2.00 2.00 2.00 2.00 2.00
   2.00 2.00 2.00 2.00 2.00 2.00 2.00 2.00 2.00 2.00
   2.00 2.00 2.00 2.00 2.00 2.00 2.00 2.00 2.00 2.00
   2.00 2.00 2.00 2.00 2.00 2.00 2.00 2.00 2.00 2.00
   2.00 2.00 2.00 2.00 2.00 2.00 2.00 2.00 2.00 2.00
   2.00 2.00 2.00 2.00 2.00 2.00 2.00 2.00 2.00 2.00
   2.00 2.00 2.00 2.00 2.00 2.00 2.00 2.00 2.00 2.00
   2.00 2.00 2.00 2.00 2.00 2.00 2.00 2.00 2.00 2.00
   2.00 2.00 2.00 2.00 2.00 2.00 2.00 2.00 2.00 2.00
   2.00 2.00 2.00 2.00 2.00 2.00 2.00 2.00 2.00 2.00
   2.00 2.00 2.00 2.00 2.00 2.00 2.00 2.00 2.00 2.00
   2.00 2.00 2.00 2.00 2.00 2.00 2.00 2.00 2.00 2.00
   2.00 2.00 2.00 2.00 2.00 2.00 2.00 2.00 2.00 2.00
   2.00 2.00 2.00 2.00 2.00 2.00 2.00 2.00 2.00 2.00
   2.00 2.00 2.00 2.00 2.00 2.00 2.00 2.00 2.00 2.00
   2.00 2.00 2.00 2.00 2.00 2.00 2.00 2.00 2.00 2.00
   2.00 2.00 2.00 2.00 2.00 2.00 2.00 2.00 2.00 2.00
   2.00 2.00 2.00 2.00 2.00 2.00 2.00 2.00 2.00 2.00
   2.00 2.00 2.00 2.00 2.00 2.00 2.00 2.00 2.00 2.00
   2.00 2.00 2.00 2.00 2.00 2.00 2.00 2.00 2.00 2.00
   2.00 2.00 2.00 2.00 2.00 2.00 2.00 2.00 2.00 2.00
   2.00 2.00 2.00 2.00 2.00 2.00 2.00 2.00 2.00 2.00
   2.00 2.00 2.00 2.00 2.00 2.00 2.00 2.00 2.00 2.00
   2.00 2.00 2.00 2.00 2.00 2.00 2.00 2.00 2.00 2.00
   2.00 2.00 2.00 2.00 2.00 2.00 2.00 2.00 2.00 2.00
   2.00 2.00 2.00 2.00 2.00 2.00 2.00 2.00 2.00 2.00
   2.00 2.00 2.00 2.00 2.00 2.00 2.00 2.00 2.00 2.00
   2.00 2.00 2.00 2.00 2.00 2.00 2.00 2.00 2.00 2.00
   2.00 2.00 2.00 2.00 2.00 2.00 2.00 2.00 2.00 2.00
   2.00 2.00 2.00 2.00 2.00 2.00 2.00 2.00 2.00 2.00
   2.00 2.00 2.00 2.00 2.00 2.00 2.00 2.00 2.00 2.00
   2.00 2.00 2.00 2.00 2.00 2.00 2.00 2.00 2.00 2.00
   2.00 2.00 2.00 2.00 2.00 2.00 2.00 2.00 2.00 2.00
   2.00 2.00 2.00 2.00 2.00 2.00 2.00 2.00 2.00 2.00
   2.00 2.00 2.00 2.00 2.00 2.00 2.00 2.00 2.00 2.00
   2.00 2.00 2.00 2.00 2.00 2.00 2.00 2.00


   Exchange and correlations functionals
   -------------------------------------
     Exchange-correlation= SLA  PW   PBE  PBE
                           (   1   4   3   4   0   0   0)


   Ions Simulation Parameters
   --------------------------
   Ions are not allowed to move
   Ionic position (from input)
   sorted by specie, and converted to real a.u. coordinates
   Species   1 atoms =  264 mass =    165882.85 (a.u.),        91.00 (amu) rcmax =   0.80 (a.u.)
        0.000000    20.488879     9.795392
        0.000000    27.323128     9.795392
        0.000000    34.157371     9.795392
        0.000000    40.991614     9.795392
        0.000000     6.820394     9.795392
        0.000000    13.654637     9.795392
       19.251392    20.488879     9.795392
       19.251392    27.323128     9.795392
       19.251392    34.157371     9.795392
       19.251392    40.991614     9.795392
       19.251392     6.820394     9.795392
       19.251392    13.654637     9.795392
       28.877089    20.488879     9.795392
       28.877089    27.323128     9.795392
       28.877089    34.157371     9.795392
       28.877089    40.991614     9.795392
       28.877089     6.820394     9.795392
       28.877089    13.654637     9.795392
        9.625696    20.488879     9.795392
        9.625696    27.323128     9.795392
        9.625696    34.157371     9.795392
        9.625696    40.991614     9.795392
        9.625696     6.820394     9.795392
        9.625696    13.654637     9.795392
       24.064240    23.915322    12.332928
       24.064240    30.749568    12.332928
       24.064240     3.412590    12.332928
       24.064240    37.583811    12.332928
       24.064240    10.246834    12.332928
       24.064240    17.081079    12.332928
       33.689935    23.915322    12.332928
       33.689935    30.749568    12.332928
       33.689935     3.412590    12.332928
       33.689935    37.583811    12.332928
       33.689935    10.246834    12.332928
       33.689935    17.081079    12.332928
        4.812848    23.915322    12.332928
        4.812848    30.749568    12.332928
        4.812848     3.412590    12.332928
        4.812848    37.583811    12.332928
        4.812848    10.246834    12.332928
        4.812848    17.081079    12.332928
       14.438544    23.915322    12.332928
       14.438544    30.749568    12.332928
       14.438544     3.412590    12.332928
       14.438544    37.583811    12.332928
       14.438544    10.246834    12.332928
       14.438544    17.081079    12.332928
        0.000000    20.490415    16.261336
        0.000000    27.324661    16.261336
        0.000000    34.158899    16.261336
        0.000000    40.993145    16.261336
        0.000000     6.821924    16.261336
        0.000000    13.656172    16.261336
       19.251392    20.490415    16.261336
       19.251392    27.324661    16.261336
       19.251392    34.158899    16.261336
       19.251392    40.993145    16.261336
       19.251392     6.821924    16.261336
       19.251392    13.656172    16.261336
       28.877089    20.490415    16.261336
       28.877089    27.324661    16.261336
       28.877089    34.158899    16.261336
       28.877089    40.993145    16.261336
       28.877089     6.821924    16.261336
       28.877089    13.656172    16.261336
        9.625696    20.490415    16.261336
        9.625696    27.324661    16.261336
        9.625696    34.158899    16.261336
        9.625696    40.993145    16.261336
        9.625696     6.821924    16.261336
        9.625696    13.656172    16.261336
       24.064240    23.915801    19.356697
       24.064240    30.750048    19.356697
       24.064240     3.413069    19.356697
       24.064240    37.584291    19.356697
       24.064240    10.247313    19.356697
       24.064240    17.081558    19.356697
       33.689935    23.915801    19.356697
       33.689935    30.750048    19.356697
       33.689935     3.413069    19.356697
       33.689935    37.584291    19.356697
       33.689935    10.247313    19.356697
       33.689935    17.081558    19.356697
        4.812848    23.915801    19.356697
        4.812848    30.750048    19.356697
        4.812848     3.413069    19.356697
        4.812848    37.584291    19.356697
        4.812848    10.247313    19.356697
        4.812848    17.081558    19.356697
       14.438544    23.915801    19.356697
       14.438544    30.750048    19.356697
       14.438544     3.413069    19.356697
       14.438544    37.584291    19.356697
       14.438544    10.247313    19.356697
       14.438544    17.081558    19.356697
        0.000000    20.491391    22.858192
        0.000000    27.325640    22.858192
        0.000000    34.159883    22.858192
        0.000000    40.994126    22.858192
        0.000000     6.822907    22.858192
        0.000000    13.657149    22.858192
       19.251392    20.491391    22.858192
       19.251392    27.325640    22.858192
       19.251392    34.159883    22.858192
       19.251392    40.994126    22.858192
       19.251392     6.822907    22.858192
       19.251392    13.657149    22.858192
       28.877089    20.491391    22.858192
       28.877089    27.325640    22.858192
       28.877089    34.159883    22.858192
       28.877089    40.994126    22.858192
       28.877089     6.822907    22.858192
       28.877089    13.657149    22.858192
        9.625696    20.491391    22.858192
        9.625696    27.325640    22.858192
        9.625696    34.159883    22.858192
        9.625696    40.994126    22.858192
        9.625696     6.822907    22.858192
        9.625696    13.657149    22.858192
       24.064240    23.916333    26.175912
       24.064240    30.750577    26.175912
       24.064240     3.413599    26.175912
       24.064240    37.584820    26.175912
       24.064240    10.247843    26.175912
       24.064240    17.082086    26.175912
       33.689935    23.916333    26.175912
       33.689935    30.750577    26.175912
       33.689935     3.413599    26.175912
       33.689935    37.584820    26.175912
       33.689935    10.247843    26.175912
       33.689935    17.082086    26.175912
        4.812848    23.916333    26.175912
        4.812848    30.750577    26.175912
        4.812848     3.413599    26.175912
        4.812848    37.584820    26.175912
        4.812848    10.247843    26.175912
        4.812848    17.082086    26.175912
       14.438544    23.916333    26.175912
       14.438544    30.750577    26.175912
       14.438544     3.413599    26.175912
       14.438544    37.584820    26.175912
       14.438544    10.247843    26.175912
       14.438544    17.082086    26.175912
        0.000000    20.491391    29.493702
        0.000000    27.325640    29.493702
        0.000000    34.159883    29.493702
        0.000000    40.994126    29.493702
        0.000000     6.822907    29.493702
        0.000000    13.657149    29.493702
       19.251392    20.491391    29.493702
       19.251392    27.325640    29.493702
       19.251392    34.159883    29.493702
       19.251392    40.994126    29.493702
       19.251392     6.822907    29.493702
       19.251392    13.657149    29.493702
       28.877089    20.491391    29.493702
       28.877089    27.325640    29.493702
       28.877089    34.159883    29.493702
       28.877089    40.994126    29.493702
       28.877089     6.822907    29.493702
       28.877089    13.657149    29.493702
        9.625696    20.491391    29.493702
        9.625696    27.325640    29.493702
        9.625696    34.159883    29.493702
        9.625696    40.994126    29.493702
        9.625696     6.822907    29.493702
        9.625696    13.657149    29.493702
       24.064240    23.915801    32.995186
       24.064240    30.750048    32.995186
       24.064240     3.413069    32.995186
       24.064240    37.584291    32.995186
       24.064240    10.247312    32.995186
       24.064240    17.081558    32.995186
       33.689935    23.915801    32.995186
       33.689935    30.750048    32.995186
       33.689935     3.413069    32.995186
       33.689935    37.584291    32.995186
       33.689935    10.247312    32.995186
       33.689935    17.081558    32.995186
        4.812848    23.915801    32.995186
        4.812848    30.750048    32.995186
        4.812848     3.413069    32.995186
        4.812848    37.584291    32.995186
        4.812848    10.247312    32.995186
        4.812848    17.081558    32.995186
       14.438544    23.915801    32.995186
       14.438544    30.750048    32.995186
       14.438544     3.413069    32.995186
       14.438544    37.584291    32.995186
       14.438544    10.247312    32.995186
       14.438544    17.081558    32.995186
        0.000000    20.490415    36.090616
        0.000000    27.324661    36.090616
        0.000000    34.158899    36.090616
        0.000000    40.993145    36.090616
        0.000000     6.821924    36.090616
        0.000000    13.656172    36.090616
       19.251392    20.490415    36.090616
       19.251392    27.324661    36.090616
       19.251392    34.158899    36.090616
       19.251392    40.993145    36.090616
       19.251392     6.821924    36.090616
       19.251392    13.656172    36.090616
       28.877089    20.490415    36.090616
       28.877089    27.324661    36.090616
       28.877089    34.158899    36.090616
       28.877089    40.993145    36.090616
       28.877089     6.821924    36.090616
       28.877089    13.656172    36.090616
        9.625696    20.490415    36.090616
        9.625696    27.324661    36.090616
        9.625696    34.158899    36.090616
        9.625696    40.993145    36.090616
        9.625696     6.821924    36.090616
        9.625696    13.656172    36.090616
       24.064240    23.915322    40.019040
       24.064240    30.749568    40.019040
       24.064240     3.412590    40.019040
       24.064240    37.583811    40.019040
       24.064240    10.246835    40.019040
       24.064240    17.081079    40.019040
       33.689935    23.915322    40.019040
       33.689935    30.749568    40.019040
       33.689935     3.412590    40.019040
       33.689935    37.583811    40.019040
       33.689935    10.246835    40.019040
       33.689935    17.081079    40.019040
        4.812848    23.915322    40.019040
        4.812848    30.749568    40.019040
        4.812848     3.412590    40.019040
        4.812848    37.583811    40.019040
        4.812848    10.246835    40.019040
        4.812848    17.081079    40.019040
       14.438544    23.915322    40.019040
       14.438544    30.749568    40.019040
       14.438544     3.412590    40.019040
       14.438544    37.583811    40.019040
       14.438544    10.246835    40.019040
       14.438544    17.081079    40.019040
        0.000000    20.488879    42.556604
        0.000000    27.323128    42.556604
        0.000000    34.157371    42.556604
        0.000000    40.991614    42.556604
        0.000000     6.820394    42.556604
        0.000000    13.654637    42.556604
       19.251392    20.488879    42.556604
       19.251392    27.323128    42.556604
       19.251392    34.157371    42.556604
       19.251392    40.991614    42.556604
       19.251392     6.820394    42.556604
       19.251392    13.654637    42.556604
       28.877089    20.488879    42.556604
       28.877089    27.323128    42.556604
       28.877089    34.157371    42.556604
       28.877089    40.991614    42.556604
       28.877089     6.820394    42.556604
       28.877089    13.654637    42.556604
        9.625696    20.488879    42.556604
        9.625696    27.323128    42.556604
        9.625696    34.157371    42.556604
        9.625696    40.991614    42.556604
        9.625696     6.820394    42.556604
        9.625696    13.654637    42.556604
   Species   2 atoms =  528 mass =     29166.22 (a.u.),        16.00 (amu) rcmax =   0.50 (a.u.)
       21.555004    23.915250     9.291180
       21.555004    30.749493     9.291180
       21.555004     3.412517     9.291180
       21.555004    37.583736     9.291180
       21.555004    10.246762     9.291180
       21.555004    17.081005     9.291180
        2.303613    23.915250     9.291180
        2.303613    30.749493     9.291180
        2.303613     3.412517     9.291180
        2.303613    37.583736     9.291180
        2.303613    10.246762     9.291180
        2.303613    17.081005     9.291180
       26.573477    23.915250     9.291180
       26.573477    30.749493     9.291180
       26.573477     3.412517     9.291180
       26.573477    37.583736     9.291180
       26.573477    10.246762     9.291180
       26.573477    17.081005     9.291180
       31.180701    23.915250     9.291180
       31.180701    30.749493     9.291180
       31.180701     3.412517     9.291180
       31.180701    37.583736     9.291180
       31.180701    10.246762     9.291180
       31.180701    17.081005     9.291180
       36.199172    23.915250     9.291180
       36.199172    30.749493     9.291180
       36.199172     3.412517     9.291180
       36.199172    37.583736     9.291180
       36.199172    10.246762     9.291180
       36.199172    17.081005     9.291180
        7.322085    23.915250     9.291180
        7.322085    30.749493     9.291180
        7.322085     3.412517     9.291180
        7.322085    37.583736     9.291180
        7.322085    10.246762     9.291180
        7.322085    17.081005     9.291180
       11.929309    23.915250     9.291180
       11.929309    30.749493     9.291180
       11.929309     3.412517     9.291180
       11.929309    37.583736     9.291180
       11.929309    10.246762     9.291180
       11.929309    17.081005     9.291180
       16.947782    23.915250     9.291180
       16.947782    30.749493     9.291180
       16.947782     3.412517     9.291180
       16.947782    37.583736     9.291180
       16.947782    10.246762     9.291180
       16.947782    17.081005     9.291180
       21.694641    20.496216    12.717912
       21.694641    27.330459    12.717912
       21.694641    34.164706    12.717912
       21.694641    40.998949    12.717912
       21.694641     6.827727    12.717912
       21.694641    13.661974    12.717912
        2.443249    20.496216    12.717912
        2.443249    27.330459    12.717912
        2.443249    34.164706    12.717912
        2.443249    40.998949    12.717912
        2.443249     6.827727    12.717912
        2.443249    13.661974    12.717912
       26.433840    20.496216    12.717912
       26.433840    27.330459    12.717912
       26.433840    34.164706    12.717912
       26.433840    40.998949    12.717912
       26.433840     6.827727    12.717912
       26.433840    13.661974    12.717912
       31.320338    20.496216    12.717912
       31.320338    27.330459    12.717912
       31.320338    34.164706    12.717912
       31.320338    40.998949    12.717912
       31.320338     6.827727    12.717912
       31.320338    13.661974    12.717912
       36.059535    20.496216    12.717912
       36.059535    27.330459    12.717912
       36.059535    34.164706    12.717912
       36.059535    40.998949    12.717912
       36.059535     6.827727    12.717912
       36.059535    13.661974    12.717912
        7.182448    20.496216    12.717912
        7.182448    27.330459    12.717912
        7.182448    34.164706    12.717912
        7.182448    40.998949    12.717912
        7.182448     6.827727    12.717912
        7.182448    13.661974    12.717912
       12.068945    20.496216    12.717912
       12.068945    27.330459    12.717912
       12.068945    34.164706    12.717912
       12.068945    40.998949    12.717912
       12.068945     6.827727    12.717912
       12.068945    13.661974    12.717912
       16.808143    20.496216    12.717912
       16.808143    27.330459    12.717912
       16.808143    34.164706    12.717912
       16.808143    40.998949    12.717912
       16.808143     6.827727    12.717912
       16.808143    13.661974    12.717912
       21.637883    23.913289    16.078000
       21.637883    30.747535    16.078000
       21.637883     3.410556    16.078000
       21.637883    37.581778    16.078000
       21.637883    10.244800    16.078000
       21.637883    17.079046    16.078000
        2.386491    23.913289    16.078000
        2.386491    30.747535    16.078000
        2.386491     3.410556    16.078000
        2.386491    37.581778    16.078000
        2.386491    10.244800    16.078000
        2.386491    17.079046    16.078000
       26.490598    23.913289    16.078000
       26.490598    30.747535    16.078000
       26.490598     3.410556    16.078000
       26.490598    37.581778    16.078000
       26.490598    10.244800    16.078000
       26.490598    17.079046    16.078000
       31.263580    23.913289    16.078000
       31.263580    30.747535    16.078000
       31.263580     3.410556    16.078000
       31.263580    37.581778    16.078000
       31.263580    10.244800    16.078000
       31.263580    17.079046    16.078000
       36.116293    23.913289    16.078000
       36.116293    30.747535    16.078000
       36.116293     3.410556    16.078000
       36.116293    37.581778    16.078000
       36.116293    10.244800    16.078000
       36.116293    17.079046    16.078000
        7.239207    23.913289    16.078000
        7.239207    30.747535    16.078000
        7.239207     3.410556    16.078000
        7.239207    37.581778    16.078000
        7.239207    10.244800    16.078000
        7.239207    17.079046    16.078000
       12.012188    23.913289    16.078000
       12.012188    30.747535    16.078000
       12.012188     3.410556    16.078000
       12.012188    37.581778    16.078000
       12.012188    10.244800    16.078000
       12.012188    17.079046    16.078000
       16.864901    23.913289    16.078000
       16.864901    30.747535    16.078000
       16.864901     3.410556    16.078000
       16.864901    37.581778    16.078000
       16.864901    10.244800    16.078000
       16.864901    17.079046    16.078000
       21.671063    20.495773    19.464210
       21.671063    27.330019    19.464210
       21.671063    34.164259    19.464210
       21.671063    40.998505    19.464210
       21.671063     6.827282    19.464210
       21.671063    13.661530    19.464210
        2.419671    20.495773    19.464210
        2.419671    27.330019    19.464210
        2.419671    34.164259    19.464210
        2.419671    40.998505    19.464210
        2.419671     6.827282    19.464210
        2.419671    13.661530    19.464210
       26.457418    20.495773    19.464210
       26.457418    27.330019    19.464210
       26.457418    34.164259    19.464210
       26.457418    40.998505    19.464210
       26.457418     6.827282    19.464210
       26.457418    13.661530    19.464210
       31.296758    20.495773    19.464210
       31.296758    27.330019    19.464210
       31.296758    34.164259    19.464210
       31.296758    40.998505    19.464210
       31.296758     6.827282    19.464210
       31.296758    13.661530    19.464210
       36.083115    20.495773    19.464210
       36.083115    27.330019    19.464210
       36.083115    34.164259    19.464210
       36.083115    40.998505    19.464210
       36.083115     6.827282    19.464210
       36.083115    13.661530    19.464210
        7.206027    20.495773    19.464210
        7.206027    27.330019    19.464210
        7.206027    34.164259    19.464210
        7.206027    40.998505    19.464210
        7.206027     6.827282    19.464210
        7.206027    13.661530    19.464210
       12.045367    20.495773    19.464210
       12.045367    27.330019    19.464210
       12.045367    34.164259    19.464210
       12.045367    40.998505    19.464210
       12.045367     6.827282    19.464210
       12.045367    13.661530    19.464210
       16.831723    20.495773    19.464210
       16.831723    27.330019    19.464210
       16.831723    34.164259    19.464210
       16.831723    40.998505    19.464210
       16.831723     6.827282    19.464210
       16.831723    13.661530    19.464210
       21.644367    23.912847    22.814752
       21.644367    30.747092    22.814752
       21.644367     3.410115    22.814752
       21.644367    37.581335    22.814752
       21.644367    10.244359    22.814752
       21.644367    17.078604    22.814752
        2.392975    23.912847    22.814752
        2.392975    30.747092    22.814752
        2.392975     3.410115    22.814752
        2.392975    37.581335    22.814752
        2.392975    10.244359    22.814752
        2.392975    17.078604    22.814752
       26.484114    23.912847    22.814752
       26.484114    30.747092    22.814752
       26.484114     3.410115    22.814752
       26.484114    37.581335    22.814752
       26.484114    10.244359    22.814752
       26.484114    17.078604    22.814752
       31.270064    23.912847    22.814752
       31.270064    30.747092    22.814752
       31.270064     3.410115    22.814752
       31.270064    37.581335    22.814752
       31.270064    10.244359    22.814752
       31.270064    17.078604    22.814752
       36.109809    23.912847    22.814752
       36.109809    30.747092    22.814752
       36.109809     3.410115    22.814752
       36.109809    37.581335    22.814752
       36.109809    10.244359    22.814752
       36.109809    17.078604    22.814752
        7.232722    23.912847    22.814752
        7.232722    30.747092    22.814752
        7.232722     3.410115    22.814752
        7.232722    37.581335    22.814752
        7.232722    10.244359    22.814752
        7.232722    17.078604    22.814752
       12.018672    23.912847    22.814752
       12.018672    30.747092    22.814752
       12.018672     3.410115    22.814752
       12.018672    37.581335    22.814752
       12.018672    10.244359    22.814752
       12.018672    17.078604    22.814752
       16.858419    23.912847    22.814752
       16.858419    30.747092    22.814752
       16.858419     3.410115    22.814752
       16.858419    37.581335    22.814752
       16.858419    10.244359    22.814752
       16.858419    17.078604    22.814752
       21.670021    20.495625    26.175926
       21.670021    27.329873    26.175926
       21.670021    34.164111    26.175926
       21.670021    40.998357    26.175926
       21.670021     6.827135    26.175926
       21.670021    13.661383    26.175926
        2.418628    20.495625    26.175926
        2.418628    27.329873    26.175926
        2.418628    34.164111    26.175926
        2.418628    40.998357    26.175926
        2.418628     6.827135    26.175926
        2.418628    13.661383    26.175926
       26.458462    20.495625    26.175926
       26.458462    27.329873    26.175926
       26.458462    34.164111    26.175926
       26.458462    40.998357    26.175926
       26.458462     6.827135    26.175926
       26.458462    13.661383    26.175926
       31.295716    20.495625    26.175926
       31.295716    27.329873    26.175926
       31.295716    34.164111    26.175926
       31.295716    40.998357    26.175926
       31.295716     6.827135    26.175926
       31.295716    13.661383    26.175926
       36.084157    20.495625    26.175926
       36.084157    27.329873    26.175926
       36.084157    34.164111    26.175926
       36.084157    40.998357    26.175926
       36.084157     6.827135    26.175926
       36.084157    13.661383    26.175926
        7.207070    20.495625    26.175926
        7.207070    27.329873    26.175926
        7.207070    34.164111    26.175926
        7.207070    40.998357    26.175926
        7.207070     6.827135    26.175926
        7.207070    13.661383    26.175926
       12.044324    20.495625    26.175926
       12.044324    27.329873    26.175926
       12.044324    34.164111    26.175926
       12.044324    40.998357    26.175926
       12.044324     6.827135    26.175926
       12.044324    13.661383    26.175926
       16.832767    20.495625    26.175926
       16.832767    27.329873    26.175926
       16.832767    34.164111    26.175926
       16.832767    40.998357    26.175926
       16.832767     6.827135    26.175926
       16.832767    13.661383    26.175926
       21.644372    23.912847    29.537117
       21.644372    30.747092    29.537117
       21.644372     3.410114    29.537117
       21.644372    37.581335    29.537117
       21.644372    10.244359    29.537117
       21.644372    17.078602    29.537117
        2.392980    23.912847    29.537117
        2.392980    30.747092    29.537117
        2.392980     3.410114    29.537117
        2.392980    37.581335    29.537117
        2.392980    10.244359    29.537117
        2.392980    17.078602    29.537117
       26.484109    23.912847    29.537117
       26.484109    30.747092    29.537117
       26.484109     3.410114    29.537117
       26.484109    37.581335    29.537117
       26.484109    10.244359    29.537117
       26.484109    17.078602    29.537117
       31.270068    23.912847    29.537117
       31.270068    30.747092    29.537117
       31.270068     3.410114    29.537117
       31.270068    37.581335    29.537117
       31.270068    10.244359    29.537117
       31.270068    17.078602    29.537117
       36.109806    23.912847    29.537117
       36.109806    30.747092    29.537117
       36.109806     3.410114    29.537117
       36.109806    37.581335    29.537117
       36.109806    10.244359    29.537117
       36.109806    17.078602    29.537117
        7.232717    23.912847    29.537117
        7.232717    30.747092    29.537117
        7.232717     3.410114    29.537117
        7.232717    37.581335    29.537117
        7.232717    10.244359    29.537117
        7.232717    17.078602    29.537117
       12.018676    23.912847    29.537117
       12.018676    30.747092    29.537117
       12.018676     3.410114    29.537117
       12.018676    37.581335    29.537117
       12.018676    10.244359    29.537117
       12.018676    17.078602    29.537117
       16.858413    23.912847    29.537117
       16.858413    30.747092    29.537117
       16.858413     3.410114    29.537117
       16.858413    37.581335    29.537117
       16.858413    10.244359    29.537117
       16.858413    17.078602    29.537117
       21.671050    20.495773    32.887696
       21.671050    27.330019    32.887696
       21.671050    34.164259    32.887696
       21.671050    40.998505    32.887696
       21.671050     6.827282    32.887696
       21.671050    13.661530    32.887696
        2.419659    20.495773    32.887696
        2.419659    27.330019    32.887696
        2.419659    34.164259    32.887696
        2.419659    40.998505    32.887696
        2.419659     6.827282    32.887696
        2.419659    13.661530    32.887696
       26.457431    20.495773    32.887696
       26.457431    27.330019    32.887696
       26.457431    34.164259    32.887696
       26.457431    40.998505    32.887696
       26.457431     6.827282    32.887696
       26.457431    13.661530    32.887696
       31.296747    20.495773    32.887696
       31.296747    27.330019    32.887696
       31.296747    34.164259    32.887696
       31.296747    40.998505    32.887696
       31.296747     6.827282    32.887696
       31.296747    13.661530    32.887696
       36.083126    20.495773    32.887696
       36.083126    27.330019    32.887696
       36.083126    34.164259    32.887696
       36.083126    40.998505    32.887696
       36.083126     6.827282    32.887696
       36.083126    13.661530    32.887696
        7.206039    20.495773    32.887696
        7.206039    27.330019    32.887696
        7.206039    34.164259    32.887696
        7.206039    40.998505    32.887696
        7.206039     6.827282    32.887696
        7.206039    13.661530    32.887696
       12.045355    20.495773    32.887696
       12.045355    27.330019    32.887696
       12.045355    34.164259    32.887696
       12.045355    40.998505    32.887696
       12.045355     6.827282    32.887696
       12.045355    13.661530    32.887696
       16.831736    20.495773    32.887696
       16.831736    27.330019    32.887696
       16.831736    34.164259    32.887696
       16.831736    40.998505    32.887696
       16.831736     6.827282    32.887696
       16.831736    13.661530    32.887696
       21.637894    23.913289    36.273938
       21.637894    30.747535    36.273938
       21.637894     3.410556    36.273938
       21.637894    37.581778    36.273938
       21.637894    10.244800    36.273938
       21.637894    17.079046    36.273938
        2.386501    23.913289    36.273938
        2.386501    30.747535    36.273938
        2.386501     3.410556    36.273938
        2.386501    37.581778    36.273938
        2.386501    10.244800    36.273938
        2.386501    17.079046    36.273938
       26.490589    23.913289    36.273938
       26.490589    30.747535    36.273938
       26.490589     3.410556    36.273938
       26.490589    37.581778    36.273938
       26.490589    10.244800    36.273938
       26.490589    17.079046    36.273938
       31.263591    23.913289    36.273938
       31.263591    30.747535    36.273938
       31.263591     3.410556    36.273938
       31.263591    37.581778    36.273938
       31.263591    10.244800    36.273938
       31.263591    17.079046    36.273938
       36.116286    23.913289    36.273938
       36.116286    30.747535    36.273938
       36.116286     3.410556    36.273938
       36.116286    37.581778    36.273938
       36.116286    10.244800    36.273938
       36.116286    17.079046    36.273938
        7.239197    23.913289    36.273938
        7.239197    30.747535    36.273938
        7.239197     3.410556    36.273938
        7.239197    37.581778    36.273938
        7.239197    10.244800    36.273938
        7.239197    17.079046    36.273938
       12.012197    23.913289    36.273938
       12.012197    30.747535    36.273938
       12.012197     3.410556    36.273938
       12.012197    37.581778    36.273938
       12.012197    10.244800    36.273938
       12.012197    17.079046    36.273938
       16.864892    23.913289    36.273938
       16.864892    30.747535    36.273938
       16.864892     3.410556    36.273938
       16.864892    37.581778    36.273938
       16.864892    10.244800    36.273938
       16.864892    17.079046    36.273938
       21.694632    20.496216    39.634069
       21.694632    27.330459    39.634069
       21.694632    34.164706    39.634069
       21.694632    40.998949    39.634069
       21.694632     6.827727    39.634069
       21.694632    13.661974    39.634069
        2.443240    20.496216    39.634069
        2.443240    27.330459    39.634069
        2.443240    34.164706    39.634069
        2.443240    40.998949    39.634069
        2.443240     6.827727    39.634069
        2.443240    13.661974    39.634069
       26.433849    20.496216    39.634069
       26.433849    27.330459    39.634069
       26.433849    34.164706    39.634069
       26.433849    40.998949    39.634069
       26.433849     6.827727    39.634069
       26.433849    13.661974    39.634069
       31.320327    20.496216    39.634069
       31.320327    27.330459    39.634069
       31.320327    34.164706    39.634069
       31.320327    40.998949    39.634069
       31.320327     6.827727    39.634069
       31.320327    13.661974    39.634069
       36.059546    20.496216    39.634069
       36.059546    27.330459    39.634069
       36.059546    34.164706    39.634069
       36.059546    40.998949    39.634069
       36.059546     6.827727    39.634069
       36.059546    13.661974    39.634069
        7.182458    20.496216    39.634069
        7.182458    27.330459    39.634069
        7.182458    34.164706    39.634069
        7.182458    40.998949    39.634069
        7.182458     6.827727    39.634069
        7.182458    13.661974    39.634069
       12.068936    20.496216    39.634069
       12.068936    27.330459    39.634069
       12.068936    34.164706    39.634069
       12.068936    40.998949    39.634069
       12.068936     6.827727    39.634069
       12.068936    13.661974    39.634069
       16.808154    20.496216    39.634069
       16.808154    27.330459    39.634069
       16.808154    34.164706    39.634069
       16.808154    40.998949    39.634069
       16.808154     6.827727    39.634069
       16.808154    13.661974    39.634069
       21.555009    23.915250    43.060805
       21.555009    30.749493    43.060805
       21.555009     3.412518    43.060805
       21.555009    37.583736    43.060805
       21.555009    10.246762    43.060805
       21.555009    17.081007    43.060805
        2.303618    23.915250    43.060805
        2.303618    30.749493    43.060805
        2.303618     3.412518    43.060805
        2.303618    37.583736    43.060805
        2.303618    10.246762    43.060805
        2.303618    17.081007    43.060805
       26.573470    23.915250    43.060805
       26.573470    30.749493    43.060805
       26.573470     3.412518    43.060805
       26.573470    37.583736    43.060805
       26.573470    10.246762    43.060805
       26.573470    17.081007    43.060805
       31.180705    23.915250    43.060805
       31.180705    30.749493    43.060805
       31.180705     3.412518    43.060805
       31.180705    37.583736    43.060805
       31.180705    10.246762    43.060805
       31.180705    17.081007    43.060805
       36.199165    23.915250    43.060805
       36.199165    30.749493    43.060805
       36.199165     3.412518    43.060805
       36.199165    37.583736    43.060805
       36.199165    10.246762    43.060805
       36.199165    17.081007    43.060805
        7.322079    23.915250    43.060805
        7.322079    30.749493    43.060805
        7.322079     3.412518    43.060805
        7.322079    37.583736    43.060805
        7.322079    10.246762    43.060805
        7.322079    17.081007    43.060805
       11.929314    23.915250    43.060805
       11.929314    30.749493    43.060805
       11.929314     3.412518    43.060805
       11.929314    37.583736    43.060805
       11.929314    10.246762    43.060805
       11.929314    17.081007    43.060805
       16.947775    23.915250    43.060805
       16.947775    30.749493    43.060805
       16.947775     3.412518    43.060805
       16.947775    37.583736    43.060805
       16.947775    10.246762    43.060805
       16.947775    17.081007    43.060805
   Ionic position read from input file


   Cell Dynamics Parameters (from STDIN)
   -------------------------------------
   Starting cell generated from CELLDM
   Constant VOLUME Molecular dynamics
   cell parameters are not allowed to move

   Verbosity: iverbosity =  0



   Simulation dimensions initialization
   ------------------------------------

   unit vectors of full simulation cell
   in real space:                         in reciprocal space (units 2pi/alat):
   1    38.5028    0.0000    0.0000              1.0000    0.0000    0.0000
   2     0.0000   41.0055    0.0000              0.0000    0.9390    0.0000
   3     0.0000    0.0000   52.9413              0.0000    0.0000    0.7273
 
     Parallelization info
     --------------------
     sticks:   dense  smooth     PW     G-vecs:    dense   smooth      PW
     Min        6280    3765    937               998143   463789   57965
     Max        6282    3770    942               998154   463792   57970
     Sum       25125   15069   3757              3992599  1855161  231869
 
     Using Slab Decomposition
 
 
   Real Mesh
   ---------
   Global Dimensions   Local  Dimensions   Processor Grid
   .X.   .Y.   .Z.     .X.   .Y.   .Z.     .X.   .Y.   .Z.
   180   192   240     180   192    60       1     1     4
   Array leading dimensions ( nr1x, nr2x, nr3x )   =    180   192   240
   Local number of cell to store the grid ( nrxx ) =    2073600
   Number of x-y planes for each processors: 
  | 192,  60  | 192,  60  | 192,  60  | 192,  60  |
   Using Slab Decomposition
 
   Smooth Real Mesh
   ----------------
   Global Dimensions   Local  Dimensions   Processor Grid
   .X.   .Y.   .Z.     .X.   .Y.   .Z.     .X.   .Y.   .Z.
   135   144   192     135   144    48       1     1     4
   Array leading dimensions ( nr1x, nr2x, nr3x )   =    135   144   192
   Local number of cell to store the grid ( nrxx ) =     933120
   Number of x-y planes for each processors: 
  | 144,  48  | 144,  48  | 144,  48  | 144,  48  |
   Using Slab Decomposition
 
   Small Box Real Mesh
   -------------------
   Global Dimensions   Local  Dimensions   Processor Grid
   .X.   .Y.   .Z.     .X.   .Y.   .Z.     .X.   .Y.   .Z.
    16    16    16      16    16    16       1     1     1
   Array leading dimensions ( nr1x, nr2x, nr3x )   =     16    16    16
   Local number of cell to store the grid ( nrxx ) =       4096
 
   unit vectors of box grid cell
   in real space:                         in reciprocal space:
       3.4225    0.0000    0.0000              1.0000    0.0000    0.0000
       0.0000    3.4171    0.0000              0.0000    1.0016    0.0000
       0.0000    0.0000    3.5294              0.0000    0.0000    0.9697
 
   Reciprocal Space Mesh
   ---------------------
   Large Mesh
     Global(ngm_g)    MinLocal       MaxLocal      Average
        1996300         499072         499077      499075.00
   Smooth Mesh
     Global(ngms_g)   MinLocal       MaxLocal      Average
         927581         231895         231896      231895.25
   Wave function Mesh
     Global(ngw_g)    MinLocal       MaxLocal      Average
         115935          28983          28985       28983.75

   Small box Mesh
   ngb =          988 not distributed to processors


   System geometry initialization
   ------------------------------
   ibrav =   14       cell parameters read from input file
 
   unit vectors of box grid cell
   in real space:                         in reciprocal space:
       3.4225    0.0000    0.0000              1.0000    0.0000    0.0000
       0.0000    3.4171    0.0000              0.0000    1.0016    0.0000
       0.0000    0.0000    3.5294              0.0000    0.0000    0.9697
     Subspace diagonalization in iterative solution of the eigenvalue problem:
     a serial algorithm will be used


   Matrix Multiplication Performances
   ortho mmul, time for parallel driver      =   0.63837 with    1 procs

   Constraints matrixes will be distributed block like on
   ortho sub-group =    1*   1 procs



   Pseudopotentials initialization
   -------------------------------
is, nh(is), ngb, kkbeta, lmaxq =     1   18  988  625    5
 
                        qqq 
  -0.4309  -0.3579   0.0000   0.0000   0.0000   0.0000
  -0.3579  -0.3191   0.0000   0.0000   0.0000   0.0000
   0.0000   0.0000   0.2258   0.1791   0.0000   0.0000
   0.0000   0.0000   0.1791   0.0223   0.0000   0.0000
   0.0000   0.0000   0.0000   0.0000   0.9522  -0.8348
   0.0000   0.0000   0.0000   0.0000  -0.8348   0.6318
 
is, nh(is), ngb, kkbeta, lmaxq =     2    8  988  507    3
 
                        qqq 
  -0.3295   0.2232   0.0000   0.0000
   0.2232  -0.1736   0.0000   0.0000
   0.0000   0.0000   3.8370  -2.6268
   0.0000   0.0000  -2.6268   1.6201
 


   Common initialization

   Specie:     1
   1  indv=  1   ang. mom=  0
   2  indv=  2   ang. mom=  0
   3  indv=  3   ang. mom=  1
   4  indv=  3   ang. mom=  1
   5  indv=  3   ang. mom=  1
   6  indv=  4   ang. mom=  1
   7  indv=  4   ang. mom=  1
   8  indv=  4   ang. mom=  1
   9  indv=  5   ang. mom=  2
  10  indv=  5   ang. mom=  2
  11  indv=  5   ang. mom=  2
  12  indv=  5   ang. mom=  2
  13  indv=  5   ang. mom=  2
  14  indv=  6   ang. mom=  2
  15  indv=  6   ang. mom=  2
  16  indv=  6   ang. mom=  2
  17  indv=  6   ang. mom=  2
  18  indv=  6   ang. mom=  2
 
                        dion 
   0.2057  -0.7540   0.0000   0.0000   0.0000   0.0000
  -0.7540  -1.0886   0.0000   0.0000   0.0000   0.0000
   0.0000   0.0000   2.1450   1.9813   0.0000   0.0000
   0.0000   0.0000   1.9813   2.3817   0.0000   0.0000
   0.0000   0.0000   0.0000   0.0000   5.2792  -5.7883
   0.0000   0.0000   0.0000   0.0000  -5.7883   6.6278

   Specie:     2
   1  indv=  1   ang. mom=  0
   2  indv=  2   ang. mom=  0
   3  indv=  3   ang. mom=  1
   4  indv=  3   ang. mom=  1
   5  indv=  3   ang. mom=  1
   6  indv=  4   ang. mom=  1
   7  indv=  4   ang. mom=  1
   8  indv=  4   ang. mom=  1
 
                        dion 
   0.9190   0.5390   0.0000   0.0000
   0.5390  -0.8499   0.0000   0.0000
   0.0000   0.0000  29.7384 -28.2269
   0.0000   0.0000 -28.2269  26.6368

   Cell parameters from input file are used in electron mass preconditioning
   init_tpiba2=    0.02663024
 
   Short Legend and Physical Units in the Output
   ---------------------------------------------
   NFI    [int]          - step index
   EKINC  [HARTREE A.U.] - kinetic energy of the fictitious electronic dynamics
   TEMPH  [K]            - Temperature of the fictitious cell dynamics
   TEMP   [K]            - Ionic temperature
   ETOT   [HARTREE A.U.] - Scf total energy (Kohn-Sham hamiltonian)
   ENTHAL [HARTREE A.U.] - Enthalpy ( ETOT + P * V )
   ECONS  [HARTREE A.U.] - Enthalpy + kinetic energy of ions and cell
   ECONT  [HARTREE A.U.] - Constant of motion for the CP lagrangian
 


   Wave Initialization: random initial wave-functions
   Occupation number from init
   nbnd =  3168
    2.00 2.00 2.00 2.00 2.00 2.00 2.00 2.00 2.00 2.00
    2.00 2.00 2.00 2.00 2.00 2.00 2.00 2.00 2.00 2.00
    2.00 2.00 2.00 2.00 2.00 2.00 2.00 2.00 2.00 2.00
    2.00 2.00 2.00 2.00 2.00 2.00 2.00 2.00 2.00 2.00
    2.00 2.00 2.00 2.00 2.00 2.00 2.00 2.00 2.00 2.00
    2.00 2.00 2.00 2.00 2.00 2.00 2.00 2.00 2.00 2.00
    2.00 2.00 2.00 2.00 2.00 2.00 2.00 2.00 2.00 2.00
    2.00 2.00 2.00 2.00 2.00 2.00 2.00 2.00 2.00 2.00
    2.00 2.00 2.00 2.00 2.00 2.00 2.00 2.00 2.00 2.00
    2.00 2.00 2.00 2.00 2.00 2.00 2.00 2.00 2.00 2.00
    2.00 2.00 2.00 2.00 2.00 2.00 2.00 2.00 2.00 2.00
    2.00 2.00 2.00 2.00 2.00 2.00 2.00 2.00 2.00 2.00
    2.00 2.00 2.00 2.00 2.00 2.00 2.00 2.00 2.00 2.00
    2.00 2.00 2.00 2.00 2.00 2.00 2.00 2.00 2.00 2.00
    2.00 2.00 2.00 2.00 2.00 2.00 2.00 2.00 2.00 2.00
    2.00 2.00 2.00 2.00 2.00 2.00 2.00 2.00 2.00 2.00
    2.00 2.00 2.00 2.00 2.00 2.00 2.00 2.00 2.00 2.00
    2.00 2.00 2.00 2.00 2.00 2.00 2.00 2.00 2.00 2.00
    2.00 2.00 2.00 2.00 2.00 2.00 2.00 2.00 2.00 2.00
    2.00 2.00 2.00 2.00 2.00 2.00 2.00 2.00 2.00 2.00
    2.00 2.00 2.00 2.00 2.00 2.00 2.00 2.00 2.00 2.00
    2.00 2.00 2.00 2.00 2.00 2.00 2.00 2.00 2.00 2.00
    2.00 2.00 2.00 2.00 2.00 2.00 2.00 2.00 2.00 2.00
    2.00 2.00 2.00 2.00 2.00 2.00 2.00 2.00 2.00 2.00
    2.00 2.00 2.00 2.00 2.00 2.00 2.00 2.00 2.00 2.00
    2.00 2.00 2.00 2.00 2.00 2.00 2.00 2.00 2.00 2.00
    2.00 2.00 2.00 2.00 2.00 2.00 2.00 2.00 2.00 2.00
    2.00 2.00 2.00 2.00 2.00 2.00 2.00 2.00 2.00 2.00
    2.00 2.00 2.00 2.00 2.00 2.00 2.00 2.00 2.00 2.00
    2.00 2.00 2.00 2.00 2.00 2.00 2.00 2.00 2.00 2.00
    2.00 2.00 2.00 2.00 2.00 2.00 2.00 2.00 2.00 2.00
    2.00 2.00 2.00 2.00 2.00 2.00 2.00 2.00 2.00 2.00
    2.00 2.00 2.00 2.00 2.00 2.00 2.00 2.00 2.00 2.00
    2.00 2.00 2.00 2.00 2.00 2.00 2.00 2.00 2.00 2.00
    2.00 2.00 2.00 2.00 2.00 2.00 2.00 2.00 2.00 2.00
    2.00 2.00 2.00 2.00 2.00 2.00 2.00 2.00 2.00 2.00
    2.00 2.00 2.00 2.00 2.00 2.00 2.00 2.00 2.00 2.00
    2.00 2.00 2.00 2.00 2.00 2.00 2.00 2.00 2.00 2.00
    2.00 2.00 2.00 2.00 2.00 2.00 2.00 2.00 2.00 2.00
    2.00 2.00 2.00 2.00 2.00 2.00 2.00 2.00 2.00 2.00
    2.00 2.00 2.00 2.00 2.00 2.00 2.00 2.00 2.00 2.00
    2.00 2.00 2.00 2.00 2.00 2.00 2.00 2.00 2.00 2.00
    2.00 2.00 2.00 2.00 2.00 2.00 2.00 2.00 2.00 2.00
    2.00 2.00 2.00 2.00 2.00 2.00 2.00 2.00 2.00 2.00
    2.00 2.00 2.00 2.00 2.00 2.00 2.00 2.00 2.00 2.00
    2.00 2.00 2.00 2.00 2.00 2.00 2.00 2.00 2.00 2.00
    2.00 2.00 2.00 2.00 2.00 2.00 2.00 2.00 2.00 2.00
    2.00 2.00 2.00 2.00 2.00 2.00 2.00 2.00 2.00 2.00
    2.00 2.00 2.00 2.00 2.00 2.00 2.00 2.00 2.00 2.00
    2.00 2.00 2.00 2.00 2.00 2.00 2.00 2.00 2.00 2.00
    2.00 2.00 2.00 2.00 2.00 2.00 2.00 2.00 2.00 2.00
    2.00 2.00 2.00 2.00 2.00 2.00 2.00 2.00 2.00 2.00
    2.00 2.00 2.00 2.00 2.00 2.00 2.00 2.00 2.00 2.00
    2.00 2.00 2.00 2.00 2.00 2.00 2.00 2.00 2.00 2.00
    2.00 2.00 2.00 2.00 2.00 2.00 2.00 2.00 2.00 2.00
    2.00 2.00 2.00 2.00 2.00 2.00 2.00 2.00 2.00 2.00
    2.00 2.00 2.00 2.00 2.00 2.00 2.00 2.00 2.00 2.00
    2.00 2.00 2.00 2.00 2.00 2.00 2.00 2.00 2.00 2.00
    2.00 2.00 2.00 2.00 2.00 2.00 2.00 2.00 2.00 2.00
    2.00 2.00 2.00 2.00 2.00 2.00 2.00 2.00 2.00 2.00
    2.00 2.00 2.00 2.00 2.00 2.00 2.00 2.00 2.00 2.00
    2.00 2.00 2.00 2.00 2.00 2.00 2.00 2.00 2.00 2.00
    2.00 2.00 2.00 2.00 2.00 2.00 2.00 2.00 2.00 2.00
    2.00 2.00 2.00 2.00 2.00 2.00 2.00 2.00 2.00 2.00
    2.00 2.00 2.00 2.00 2.00 2.00 2.00 2.00 2.00 2.00
    2.00 2.00 2.00 2.00 2.00 2.00 2.00 2.00 2.00 2.00
    2.00 2.00 2.00 2.00 2.00 2.00 2.00 2.00 2.00 2.00
    2.00 2.00 2.00 2.00 2.00 2.00 2.00 2.00 2.00 2.00
    2.00 2.00 2.00 2.00 2.00 2.00 2.00 2.00 2.00 2.00
    2.00 2.00 2.00 2.00 2.00 2.00 2.00 2.00 2.00 2.00
    2.00 2.00 2.00 2.00 2.00 2.00 2.00 2.00 2.00 2.00
    2.00 2.00 2.00 2.00 2.00 2.00 2.00 2.00 2.00 2.00
    2.00 2.00 2.00 2.00 2.00 2.00 2.00 2.00 2.00 2.00
    2.00 2.00 2.00 2.00 2.00 2.00 2.00 2.00 2.00 2.00
    2.00 2.00 2.00 2.00 2.00 2.00 2.00 2.00 2.00 2.00
    2.00 2.00 2.00 2.00 2.00 2.00 2.00 2.00 2.00 2.00
    2.00 2.00 2.00 2.00 2.00 2.00 2.00 2.00 2.00 2.00
    2.00 2.00 2.00 2.00 2.00 2.00 2.00 2.00 2.00 2.00
    2.00 2.00 2.00 2.00 2.00 2.00 2.00 2.00 2.00 2.00
    2.00 2.00 2.00 2.00 2.00 2.00 2.00 2.00 2.00 2.00
    2.00 2.00 2.00 2.00 2.00 2.00 2.00 2.00 2.00 2.00
    2.00 2.00 2.00 2.00 2.00 2.00 2.00 2.00 2.00 2.00
    2.00 2.00 2.00 2.00 2.00 2.00 2.00 2.00 2.00 2.00
    2.00 2.00 2.00 2.00 2.00 2.00 2.00 2.00 2.00 2.00
    2.00 2.00 2.00 2.00 2.00 2.00 2.00 2.00 2.00 2.00
    2.00 2.00 2.00 2.00 2.00 2.00 2.00 2.00 2.00 2.00
    2.00 2.00 2.00 2.00 2.00 2.00 2.00 2.00 2.00 2.00
    2.00 2.00 2.00 2.00 2.00 2.00 2.00 2.00 2.00 2.00
    2.00 2.00 2.00 2.00 2.00 2.00 2.00 2.00 2.00 2.00
    2.00 2.00 2.00 2.00 2.00 2.00 2.00 2.00 2.00 2.00
    2.00 2.00 2.00 2.00 2.00 2.00 2.00 2.00 2.00 2.00
    2.00 2.00 2.00 2.00 2.00 2.00 2.00 2.00 2.00 2.00
    2.00 2.00 2.00 2.00 2.00 2.00 2.00 2.00 2.00 2.00
    2.00 2.00 2.00 2.00 2.00 2.00 2.00 2.00 2.00 2.00
    2.00 2.00 2.00 2.00 2.00 2.00 2.00 2.00 2.00 2.00
    2.00 2.00 2.00 2.00 2.00 2.00 2.00 2.00 2.00 2.00
    2.00 2.00 2.00 2.00 2.00 2.00 2.00 2.00 2.00 2.00
    2.00 2.00 2.00 2.00 2.00 2.00 2.00 2.00 2.00 2.00
    2.00 2.00 2.00 2.00 2.00 2.00 2.00 2.00 2.00 2.00
    2.00 2.00 2.00 2.00 2.00 2.00 2.00 2.00 2.00 2.00
    2.00 2.00 2.00 2.00 2.00 2.00 2.00 2.00 2.00 2.00
    2.00 2.00 2.00 2.00 2.00 2.00 2.00 2.00 2.00 2.00
    2.00 2.00 2.00 2.00 2.00 2.00 2.00 2.00 2.00 2.00
    2.00 2.00 2.00 2.00 2.00 2.00 2.00 2.00 2.00 2.00
    2.00 2.00 2.00 2.00 2.00 2.00 2.00 2.00 2.00 2.00
    2.00 2.00 2.00 2.00 2.00 2.00 2.00 2.00 2.00 2.00
    2.00 2.00 2.00 2.00 2.00 2.00 2.00 2.00 2.00 2.00
    2.00 2.00 2.00 2.00 2.00 2.00 2.00 2.00 2.00 2.00
    2.00 2.00 2.00 2.00 2.00 2.00 2.00 2.00 2.00 2.00
    2.00 2.00 2.00 2.00 2.00 2.00 2.00 2.00 2.00 2.00
    2.00 2.00 2.00 2.00 2.00 2.00 2.00 2.00 2.00 2.00
    2.00 2.00 2.00 2.00 2.00 2.00 2.00 2.00 2.00 2.00
    2.00 2.00 2.00 2.00 2.00 2.00 2.00 2.00 2.00 2.00
    2.00 2.00 2.00 2.00 2.00 2.00 2.00 2.00 2.00 2.00
    2.00 2.00 2.00 2.00 2.00 2.00 2.00 2.00 2.00 2.00
    2.00 2.00 2.00 2.00 2.00 2.00 2.00 2.00 2.00 2.00
    2.00 2.00 2.00 2.00 2.00 2.00 2.00 2.00 2.00 2.00
    2.00 2.00 2.00 2.00 2.00 2.00 2.00 2.00 2.00 2.00
    2.00 2.00 2.00 2.00 2.00 2.00 2.00 2.00 2.00 2.00
    2.00 2.00 2.00 2.00 2.00 2.00 2.00 2.00 2.00 2.00
    2.00 2.00 2.00 2.00 2.00 2.00 2.00 2.00 2.00 2.00
    2.00 2.00 2.00 2.00 2.00 2.00 2.00 2.00 2.00 2.00
    2.00 2.00 2.00 2.00 2.00 2.00 2.00 2.00 2.00 2.00
    2.00 2.00 2.00 2.00 2.00 2.00 2.00 2.00 2.00 2.00
    2.00 2.00 2.00 2.00 2.00 2.00 2.00 2.00 2.00 2.00
    2.00 2.00 2.00 2.00 2.00 2.00 2.00 2.00 2.00 2.00
    2.00 2.00 2.00 2.00 2.00 2.00 2.00 2.00 2.00 2.00
    2.00 2.00 2.00 2.00 2.00 2.00 2.00 2.00 2.00 2.00
    2.00 2.00 2.00 2.00 2.00 2.00 2.00 2.00 2.00 2.00
    2.00 2.00 2.00 2.00 2.00 2.00 2.00 2.00 2.00 2.00
    2.00 2.00 2.00 2.00 2.00 2.00 2.00 2.00 2.00 2.00
    2.00 2.00 2.00 2.00 2.00 2.00 2.00 2.00 2.00 2.00
    2.00 2.00 2.00 2.00 2.00 2.00 2.00 2.00 2.00 2.00
    2.00 2.00 2.00 2.00 2.00 2.00 2.00 2.00 2.00 2.00
    2.00 2.00 2.00 2.00 2.00 2.00 2.00 2.00 2.00 2.00
    2.00 2.00 2.00 2.00 2.00 2.00 2.00 2.00 2.00 2.00
    2.00 2.00 2.00 2.00 2.00 2.00 2.00 2.00 2.00 2.00
    2.00 2.00 2.00 2.00 2.00 2.00 2.00 2.00 2.00 2.00
    2.00 2.00 2.00 2.00 2.00 2.00 2.00 2.00 2.00 2.00
    2.00 2.00 2.00 2.00 2.00 2.00 2.00 2.00 2.00 2.00
    2.00 2.00 2.00 2.00 2.00 2.00 2.00 2.00 2.00 2.00
    2.00 2.00 2.00 2.00 2.00 2.00 2.00 2.00 2.00 2.00
    2.00 2.00 2.00 2.00 2.00 2.00 2.00 2.00 2.00 2.00
    2.00 2.00 2.00 2.00 2.00 2.00 2.00 2.00 2.00 2.00
    2.00 2.00 2.00 2.00 2.00 2.00 2.00 2.00 2.00 2.00
    2.00 2.00 2.00 2.00 2.00 2.00 2.00 2.00 2.00 2.00
    2.00 2.00 2.00 2.00 2.00 2.00 2.00 2.00 2.00 2.00
    2.00 2.00 2.00 2.00 2.00 2.00 2.00 2.00 2.00 2.00
    2.00 2.00 2.00 2.00 2.00 2.00 2.00 2.00 2.00 2.00
    2.00 2.00 2.00 2.00 2.00 2.00 2.00 2.00 2.00 2.00
    2.00 2.00 2.00 2.00 2.00 2.00 2.00 2.00 2.00 2.00
    2.00 2.00 2.00 2.00 2.00 2.00 2.00 2.00 2.00 2.00
    2.00 2.00 2.00 2.00 2.00 2.00 2.00 2.00 2.00 2.00
    2.00 2.00 2.00 2.00 2.00 2.00 2.00 2.00 2.00 2.00
    2.00 2.00 2.00 2.00 2.00 2.00 2.00 2.00 2.00 2.00
    2.00 2.00 2.00 2.00 2.00 2.00 2.00 2.00 2.00 2.00
    2.00 2.00 2.00 2.00 2.00 2.00 2.00 2.00 2.00 2.00
    2.00 2.00 2.00 2.00 2.00 2.00 2.00 2.00 2.00 2.00
    2.00 2.00 2.00 2.00 2.00 2.00 2.00 2.00 2.00 2.00
    2.00 2.00 2.00 2.00 2.00 2.00 2.00 2.00 2.00 2.00
    2.00 2.00 2.00 2.00 2.00 2.00 2.00 2.00 2.00 2.00
    2.00 2.00 2.00 2.00 2.00 2.00 2.00 2.00 2.00 2.00
    2.00 2.00 2.00 2.00 2.00 2.00 2.00 2.00 2.00 2.00
    2.00 2.00 2.00 2.00 2.00 2.00 2.00 2.00 2.00 2.00
    2.00 2.00 2.00 2.00 2.00 2.00 2.00 2.00 2.00 2.00
    2.00 2.00 2.00 2.00 2.00 2.00 2.00 2.00 2.00 2.00
    2.00 2.00 2.00 2.00 2.00 2.00 2.00 2.00 2.00 2.00
    2.00 2.00 2.00 2.00 2.00 2.00 2.00 2.00 2.00 2.00
    2.00 2.00 2.00 2.00 2.00 2.00 2.00 2.00 2.00 2.00
    2.00 2.00 2.00 2.00 2.00 2.00 2.00 2.00 2.00 2.00
    2.00 2.00 2.00 2.00 2.00 2.00 2.00 2.00 2.00 2.00
    2.00 2.00 2.00 2.00 2.00 2.00 2.00 2.00 2.00 2.00
    2.00 2.00 2.00 2.00 2.00 2.00 2.00 2.00 2.00 2.00
    2.00 2.00 2.00 2.00 2.00 2.00 2.00 2.00 2.00 2.00
    2.00 2.00 2.00 2.00 2.00 2.00 2.00 2.00 2.00 2.00
    2.00 2.00 2.00 2.00 2.00 2.00 2.00 2.00 2.00 2.00
    2.00 2.00 2.00 2.00 2.00 2.00 2.00 2.00 2.00 2.00
    2.00 2.00 2.00 2.00 2.00 2.00 2.00 2.00 2.00 2.00
    2.00 2.00 2.00 2.00 2.00 2.00 2.00 2.00 2.00 2.00
    2.00 2.00 2.00 2.00 2.00 2.00 2.00 2.00 2.00 2.00
    2.00 2.00 2.00 2.00 2.00 2.00 2.00 2.00 2.00 2.00
    2.00 2.00 2.00 2.00 2.00 2.00 2.00 2.00 2.00 2.00
    2.00 2.00 2.00 2.00 2.00 2.00 2.00 2.00 2.00 2.00
    2.00 2.00 2.00 2.00 2.00 2.00 2.00 2.00 2.00 2.00
    2.00 2.00 2.00 2.00 2.00 2.00 2.00 2.00 2.00 2.00
    2.00 2.00 2.00 2.00 2.00 2.00 2.00 2.00 2.00 2.00
    2.00 2.00 2.00 2.00 2.00 2.00 2.00 2.00 2.00 2.00
    2.00 2.00 2.00 2.00 2.00 2.00 2.00 2.00 2.00 2.00
    2.00 2.00 2.00 2.00 2.00 2.00 2.00 2.00 2.00 2.00
    2.00 2.00 2.00 2.00 2.00 2.00 2.00 2.00 2.00 2.00
    2.00 2.00 2.00 2.00 2.00 2.00 2.00 2.00 2.00 2.00
    2.00 2.00 2.00 2.00 2.00 2.00 2.00 2.00 2.00 2.00
    2.00 2.00 2.00 2.00 2.00 2.00 2.00 2.00 2.00 2.00
    2.00 2.00 2.00 2.00 2.00 2.00 2.00 2.00 2.00 2.00
    2.00 2.00 2.00 2.00 2.00 2.00 2.00 2.00 2.00 2.00
    2.00 2.00 2.00 2.00 2.00 2.00 2.00 2.00 2.00 2.00
    2.00 2.00 2.00 2.00 2.00 2.00 2.00 2.00 2.00 2.00
    2.00 2.00 2.00 2.00 2.00 2.00 2.00 2.00 2.00 2.00
    2.00 2.00 2.00 2.00 2.00 2.00 2.00 2.00 2.00 2.00
    2.00 2.00 2.00 2.00 2.00 2.00 2.00 2.00 2.00 2.00
    2.00 2.00 2.00 2.00 2.00 2.00 2.00 2.00 2.00 2.00
    2.00 2.00 2.00 2.00 2.00 2.00 2.00 2.00 2.00 2.00
    2.00 2.00 2.00 2.00 2.00 2.00 2.00 2.00 2.00 2.00
    2.00 2.00 2.00 2.00 2.00 2.00 2.00 2.00 2.00 2.00
    2.00 2.00 2.00 2.00 2.00 2.00 2.00 2.00 2.00 2.00
    2.00 2.00 2.00 2.00 2.00 2.00 2.00 2.00 2.00 2.00
    2.00 2.00 2.00 2.00 2.00 2.00 2.00 2.00 2.00 2.00
    2.00 2.00 2.00 2.00 2.00 2.00 2.00 2.00 2.00 2.00
    2.00 2.00 2.00 2.00 2.00 2.00 2.00 2.00 2.00 2.00
    2.00 2.00 2.00 2.00 2.00 2.00 2.00 2.00 2.00 2.00
    2.00 2.00 2.00 2.00 2.00 2.00 2.00 2.00 2.00 2.00
    2.00 2.00 2.00 2.00 2.00 2.00 2.00 2.00 2.00 2.00
    2.00 2.00 2.00 2.00 2.00 2.00 2.00 2.00 2.00 2.00
    2.00 2.00 2.00 2.00 2.00 2.00 2.00 2.00 2.00 2.00
    2.00 2.00 2.00 2.00 2.00 2.00 2.00 2.00 2.00 2.00
    2.00 2.00 2.00 2.00 2.00 2.00 2.00 2.00 2.00 2.00
    2.00 2.00 2.00 2.00 2.00 2.00 2.00 2.00 2.00 2.00
    2.00 2.00 2.00 2.00 2.00 2.00 2.00 2.00 2.00 2.00
    2.00 2.00 2.00 2.00 2.00 2.00 2.00 2.00 2.00 2.00
    2.00 2.00 2.00 2.00 2.00 2.00 2.00 2.00 2.00 2.00
    2.00 2.00 2.00 2.00 2.00 2.00 2.00 2.00 2.00 2.00
    2.00 2.00 2.00 2.00 2.00 2.00 2.00 2.00 2.00 2.00
    2.00 2.00 2.00 2.00 2.00 2.00 2.00 2.00 2.00 2.00
    2.00 2.00 2.00 2.00 2.00 2.00 2.00 2.00 2.00 2.00
    2.00 2.00 2.00 2.00 2.00 2.00 2.00 2.00 2.00 2.00
    2.00 2.00 2.00 2.00 2.00 2.00 2.00 2.00 2.00 2.00
    2.00 2.00 2.00 2.00 2.00 2.00 2.00 2.00 2.00 2.00
    2.00 2.00 2.00 2.00 2.00 2.00 2.00 2.00 2.00 2.00
    2.00 2.00 2.00 2.00 2.00 2.00 2.00 2.00 2.00 2.00
    2.00 2.00 2.00 2.00 2.00 2.00 2.00 2.00 2.00 2.00
    2.00 2.00 2.00 2.00 2.00 2.00 2.00 2.00 2.00 2.00
    2.00 2.00 2.00 2.00 2.00 2.00 2.00 2.00 2.00 2.00
    2.00 2.00 2.00 2.00 2.00 2.00 2.00 2.00 2.00 2.00
    2.00 2.00 2.00 2.00 2.00 2.00 2.00 2.00 2.00 2.00
    2.00 2.00 2.00 2.00 2.00 2.00 2.00 2.00 2.00 2.00
    2.00 2.00 2.00 2.00 2.00 2.00 2.00 2.00 2.00 2.00
    2.00 2.00 2.00 2.00 2.00 2.00 2.00 2.00 2.00 2.00
    2.00 2.00 2.00 2.00 2.00 2.00 2.00 2.00 2.00 2.00
    2.00 2.00 2.00 2.00 2.00 2.00 2.00 2.00 2.00 2.00
    2.00 2.00 2.00 2.00 2.00 2.00 2.00 2.00 2.00 2.00
    2.00 2.00 2.00 2.00 2.00 2.00 2.00 2.00 2.00 2.00
    2.00 2.00 2.00 2.00 2.00 2.00 2.00 2.00 2.00 2.00
    2.00 2.00 2.00 2.00 2.00 2.00 2.00 2.00 2.00 2.00
    2.00 2.00 2.00 2.00 2.00 2.00 2.00 2.00 2.00 2.00
    2.00 2.00 2.00 2.00 2.00 2.00 2.00 2.00 2.00 2.00
    2.00 2.00 2.00 2.00 2.00 2.00 2.00 2.00 2.00 2.00
    2.00 2.00 2.00 2.00 2.00 2.00 2.00 2.00 2.00 2.00
    2.00 2.00 2.00 2.00 2.00 2.00 2.00 2.00 2.00 2.00
    2.00 2.00 2.00 2.00 2.00 2.00 2.00 2.00 2.00 2.00
    2.00 2.00 2.00 2.00 2.00 2.00 2.00 2.00 2.00 2.00
    2.00 2.00 2.00 2.00 2.00 2.00 2.00 2.00 2.00 2.00
    2.00 2.00 2.00 2.00 2.00 2.00 2.00 2.00 2.00 2.00
    2.00 2.00 2.00 2.00 2.00 2.00 2.00 2.00 2.00 2.00
    2.00 2.00 2.00 2.00 2.00 2.00 2.00 2.00 2.00 2.00
    2.00 2.00 2.00 2.00 2.00 2.00 2.00 2.00 2.00 2.00
    2.00 2.00 2.00 2.00 2.00 2.00 2.00 2.00 2.00 2.00
    2.00 2.00 2.00 2.00 2.00 2.00 2.00 2.00 2.00 2.00
    2.00 2.00 2.00 2.00 2.00 2.00 2.00 2.00 2.00 2.00
    2.00 2.00 2.00 2.00 2.00 2.00 2.00 2.00 2.00 2.00
    2.00 2.00 2.00 2.00 2.00 2.00 2.00 2.00 2.00 2.00
    2.00 2.00 2.00 2.00 2.00 2.00 2.00 2.00 2.00 2.00
    2.00 2.00 2.00 2.00 2.00 2.00 2.00 2.00 2.00 2.00
    2.00 2.00 2.00 2.00 2.00 2.00 2.00 2.00 2.00 2.00
    2.00 2.00 2.00 2.00 2.00 2.00 2.00 2.00 2.00 2.00
    2.00 2.00 2.00 2.00 2.00 2.00 2.00 2.00 2.00 2.00
    2.00 2.00 2.00 2.00 2.00 2.00 2.00 2.00 2.00 2.00
    2.00 2.00 2.00 2.00 2.00 2.00 2.00 2.00 2.00 2.00
    2.00 2.00 2.00 2.00 2.00 2.00 2.00 2.00 2.00 2.00
    2.00 2.00 2.00 2.00 2.00 2.00 2.00 2.00 2.00 2.00
    2.00 2.00 2.00 2.00 2.00 2.00 2.00 2.00 2.00 2.00
    2.00 2.00 2.00 2.00 2.00 2.00 2.00 2.00 2.00 2.00
    2.00 2.00 2.00 2.00 2.00 2.00 2.00 2.00 2.00 2.00
    2.00 2.00 2.00 2.00 2.00 2.00 2.00 2.00 2.00 2.00
    2.00 2.00 2.00 2.00 2.00 2.00 2.00 2.00 2.00 2.00
    2.00 2.00 2.00 2.00 2.00 2.00 2.00 2.00 2.00 2.00
    2.00 2.00 2.00 2.00 2.00 2.00 2.00 2.00 2.00 2.00
    2.00 2.00 2.00 2.00 2.00 2.00 2.00 2.00 2.00 2.00
    2.00 2.00 2.00 2.00 2.00 2.00 2.00 2.00 2.00 2.00
    2.00 2.00 2.00 2.00 2.00 2.00 2.00 2.00 2.00 2.00
    2.00 2.00 2.00 2.00 2.00 2.00 2.00 2.00 2.00 2.00
    2.00 2.00 2.00 2.00 2.00 2.00 2.00 2.00 2.00 2.00
    2.00 2.00 2.00 2.00 2.00 2.00 2.00 2.00 2.00 2.00
    2.00 2.00 2.00 2.00 2.00 2.00 2.00 2.00 2.00 2.00
    2.00 2.00 2.00 2.00 2.00 2.00 2.00 2.00 2.00 2.00
    2.00 2.00 2.00 2.00 2.00 2.00 2.00 2.00 2.00 2.00
    2.00 2.00 2.00 2.00 2.00 2.00 2.00 2.00 2.00 2.00
    2.00 2.00 2.00 2.00 2.00 2.00 2.00 2.00 2.00 2.00
    2.00 2.00 2.00 2.00 2.00 2.00 2.00 2.00 2.00 2.00
    2.00 2.00 2.00 2.00 2.00 2.00 2.00 2.00 2.00 2.00
    2.00 2.00 2.00 2.00 2.00 2.00 2.00 2.00 2.00 2.00
    2.00 2.00 2.00 2.00 2.00 2.00 2.00 2.00 2.00 2.00
    2.00 2.00 2.00 2.00 2.00 2.00 2.00 2.00 2.00 2.00
    2.00 2.00 2.00 2.00 2.00 2.00 2.00 2.00 2.00 2.00
    2.00 2.00 2.00 2.00 2.00 2.00 2.00 2.00 2.00 2.00
    2.00 2.00 2.00 2.00 2.00 2.00 2.00 2.00 2.00 2.00
    2.00 2.00 2.00 2.00 2.00 2.00 2.00 2.00 2.00 2.00
    2.00 2.00 2.00 2.00 2.00 2.00 2.00 2.00 2.00 2.00
    2.00 2.00 2.00 2.00 2.00 2.00 2.00 2.00 2.00 2.00
    2.00 2.00 2.00 2.00 2.00 2.00 2.00 2.00 2.00 2.00
    2.00 2.00 2.00 2.00 2.00 2.00 2.00 2.00 2.00 2.00
    2.00 2.00 2.00 2.00 2.00 2.00 2.00 2.00 2.00 2.00
    2.00 2.00 2.00 2.00 2.00 2.00 2.00 2.00 2.00 2.00
    2.00 2.00 2.00 2.00 2.00 2.00 2.00 2.00 2.00 2.00
    2.00 2.00 2.00 2.00 2.00 2.00 2.00 2.00 2.00 2.00
    2.00 2.00 2.00 2.00 2.00 2.00 2.00 2.00 2.00 2.00
    2.00 2.00 2.00 2.00 2.00 2.00 2.00 2.00 2.00 2.00
    2.00 2.00 2.00 2.00 2.00 2.00 2.00 2.00 2.00 2.00
    2.00 2.00 2.00 2.00 2.00 2.00 2.00 2.00 2.00 2.00
    2.00 2.00 2.00 2.00 2.00 2.00 2.00 2.00 2.00 2.00
    2.00 2.00 2.00 2.00 2.00 2.00 2.00 2.00 2.00 2.00
    2.00 2.00 2.00 2.00 2.00 2.00 2.00 2.00 2.00 2.00
    2.00 2.00 2.00 2.00 2.00 2.00 2.00 2.00 2.00 2.00
    2.00 2.00 2.00 2.00 2.00 2.00 2.00 2.00 2.00 2.00
    2.00 2.00 2.00 2.00 2.00 2.00 2.00 2.00 2.00 2.00
    2.00 2.00 2.00 2.00 2.00 2.00 2.00 2.00 2.00 2.00
    2.00 2.00 2.00 2.00 2.00 2.00 2.00 2.00 2.00 2.00
    2.00 2.00 2.00 2.00 2.00 2.00 2.00 2.00

   formf: eself= 34123.92690
   formf:     vps(g=0)=  -0.0000749     rhops(g=0)=  -0.0001436
   formf:     vps(g=0)=  -0.0000746     rhops(g=0)=  -0.0001432
   formf:     vps(g=0)=  -0.0000744     rhops(g=0)=  -0.0001430
   formf:     vps(g=0)=  -0.0000741     rhops(g=0)=  -0.0001426
   formf:     vps(g=0)=  -0.0000741     rhops(g=0)=  -0.0001426
   formf: sum_g vps(g)=   0.5741520 sum_g rhops(g)=  -2.1046083
   formf:     vps(g=0)=  -0.0000224     rhops(g=0)=  -0.0000718
   formf:     vps(g=0)=  -0.0000223     rhops(g=0)=  -0.0000717
   formf:     vps(g=0)=  -0.0000223     rhops(g=0)=  -0.0000717
   formf:     vps(g=0)=  -0.0000223     rhops(g=0)=  -0.0000716
   formf:     vps(g=0)=  -0.0000223     rhops(g=0)=  -0.0000716
   formf: sum_g vps(g)=  -0.4569488 sum_g rhops(g)=  -4.3022911
   Delta V(G=0):   0.105973Ry,    2.883676eV

   from rhoofr: total integrated electronic density
   in g-space =   6336.000000   in r-space =  6336.000000
 
  nfi     ekinc              temph  tempp     etot                 enthal               econs                econt              vnhh    xnhh0   vnhp    xnhp0
      1 5509.680031541687640    0.0    0.00   48909.427018622271   48909.427018622271   48909.427018622271   54419.107050163962   0.0000   0.0000   0.0000   0.0000
      2 ********************    0.0    0.00   34707.190299749825   34707.190299749825   34707.190299749825   46543.786890404088   0.0000   0.0000   0.0000   0.0000
[...]
   O       0.00000000000000E+00     0.00000000000000E+00     0.00000000000000E+00
   O       0.00000000000000E+00     0.00000000000000E+00     0.00000000000000E+00
   O       0.00000000000000E+00     0.00000000000000E+00     0.00000000000000E+00
   O       0.00000000000000E+00     0.00000000000000E+00     0.00000000000000E+00
   O       0.00000000000000E+00     0.00000000000000E+00     0.00000000000000E+00
   O       0.00000000000000E+00     0.00000000000000E+00     0.00000000000000E+00
   O       0.00000000000000E+00     0.00000000000000E+00     0.00000000000000E+00
   O       0.00000000000000E+00     0.00000000000000E+00     0.00000000000000E+00
   O       0.00000000000000E+00     0.00000000000000E+00     0.00000000000000E+00
   O       0.00000000000000E+00     0.00000000000000E+00     0.00000000000000E+00
   O       0.00000000000000E+00     0.00000000000000E+00     0.00000000000000E+00
   O       0.00000000000000E+00     0.00000000000000E+00     0.00000000000000E+00
   O       0.00000000000000E+00     0.00000000000000E+00     0.00000000000000E+00
   O       0.00000000000000E+00     0.00000000000000E+00     0.00000000000000E+00
   O       0.00000000000000E+00     0.00000000000000E+00     0.00000000000000E+00
   O       0.00000000000000E+00     0.00000000000000E+00     0.00000000000000E+00
   O       0.00000000000000E+00     0.00000000000000E+00     0.00000000000000E+00
   O       0.00000000000000E+00     0.00000000000000E+00     0.00000000000000E+00
   O       0.00000000000000E+00     0.00000000000000E+00     0.00000000000000E+00
   O       0.00000000000000E+00     0.00000000000000E+00     0.00000000000000E+00
   O       0.00000000000000E+00     0.00000000000000E+00     0.00000000000000E+00
   O       0.00000000000000E+00     0.00000000000000E+00     0.00000000000000E+00
   O       0.00000000000000E+00     0.00000000000000E+00     0.00000000000000E+00
   O       0.00000000000000E+00     0.00000000000000E+00     0.00000000000000E+00
   O       0.00000000000000E+00     0.00000000000000E+00     0.00000000000000E+00
   O       0.00000000000000E+00     0.00000000000000E+00     0.00000000000000E+00
   O       0.00000000000000E+00     0.00000000000000E+00     0.00000000000000E+00
   O       0.00000000000000E+00     0.00000000000000E+00     0.00000000000000E+00
   O       0.00000000000000E+00     0.00000000000000E+00     0.00000000000000E+00
   O       0.00000000000000E+00     0.00000000000000E+00     0.00000000000000E+00
   O       0.00000000000000E+00     0.00000000000000E+00     0.00000000000000E+00
   O       0.00000000000000E+00     0.00000000000000E+00     0.00000000000000E+00
   O       0.00000000000000E+00     0.00000000000000E+00     0.00000000000000E+00
   O       0.00000000000000E+00     0.00000000000000E+00     0.00000000000000E+00
   O       0.00000000000000E+00     0.00000000000000E+00     0.00000000000000E+00
   O       0.00000000000000E+00     0.00000000000000E+00     0.00000000000000E+00
   O       0.00000000000000E+00     0.00000000000000E+00     0.00000000000000E+00
   O       0.00000000000000E+00     0.00000000000000E+00     0.00000000000000E+00
   O       0.00000000000000E+00     0.00000000000000E+00     0.00000000000000E+00
   O       0.00000000000000E+00     0.00000000000000E+00     0.00000000000000E+00
   O       0.00000000000000E+00     0.00000000000000E+00     0.00000000000000E+00
   O       0.00000000000000E+00     0.00000000000000E+00     0.00000000000000E+00
   O       0.00000000000000E+00     0.00000000000000E+00     0.00000000000000E+00
   O       0.00000000000000E+00     0.00000000000000E+00     0.00000000000000E+00
   O       0.00000000000000E+00     0.00000000000000E+00     0.00000000000000E+00
   O       0.00000000000000E+00     0.00000000000000E+00     0.00000000000000E+00
   O       0.00000000000000E+00     0.00000000000000E+00     0.00000000000000E+00
   O       0.00000000000000E+00     0.00000000000000E+00     0.00000000000000E+00
   O       0.00000000000000E+00     0.00000000000000E+00     0.00000000000000E+00
   O       0.00000000000000E+00     0.00000000000000E+00     0.00000000000000E+00
   O       0.00000000000000E+00     0.00000000000000E+00     0.00000000000000E+00
   O       0.00000000000000E+00     0.00000000000000E+00     0.00000000000000E+00
   O       0.00000000000000E+00     0.00000000000000E+00     0.00000000000000E+00
   O       0.00000000000000E+00     0.00000000000000E+00     0.00000000000000E+00
   O       0.00000000000000E+00     0.00000000000000E+00     0.00000000000000E+00
   O       0.00000000000000E+00     0.00000000000000E+00     0.00000000000000E+00
   O       0.00000000000000E+00     0.00000000000000E+00     0.00000000000000E+00
   O       0.00000000000000E+00     0.00000000000000E+00     0.00000000000000E+00
   O       0.00000000000000E+00     0.00000000000000E+00     0.00000000000000E+00
   O       0.00000000000000E+00     0.00000000000000E+00     0.00000000000000E+00
   O       0.00000000000000E+00     0.00000000000000E+00     0.00000000000000E+00
   O       0.00000000000000E+00     0.00000000000000E+00     0.00000000000000E+00
   O       0.00000000000000E+00     0.00000000000000E+00     0.00000000000000E+00
   O       0.00000000000000E+00     0.00000000000000E+00     0.00000000000000E+00
   O       0.00000000000000E+00     0.00000000000000E+00     0.00000000000000E+00
   O       0.00000000000000E+00     0.00000000000000E+00     0.00000000000000E+00
   O       0.00000000000000E+00     0.00000000000000E+00     0.00000000000000E+00
   O       0.00000000000000E+00     0.00000000000000E+00     0.00000000000000E+00
   O       0.00000000000000E+00     0.00000000000000E+00     0.00000000000000E+00
   O       0.00000000000000E+00     0.00000000000000E+00     0.00000000000000E+00
   O       0.00000000000000E+00     0.00000000000000E+00     0.00000000000000E+00
   O       0.00000000000000E+00     0.00000000000000E+00     0.00000000000000E+00
   O       0.00000000000000E+00     0.00000000000000E+00     0.00000000000000E+00
   O       0.00000000000000E+00     0.00000000000000E+00     0.00000000000000E+00
   O       0.00000000000000E+00     0.00000000000000E+00     0.00000000000000E+00
   O       0.00000000000000E+00     0.00000000000000E+00     0.00000000000000E+00
   O       0.00000000000000E+00     0.00000000000000E+00     0.00000000000000E+00
   O       0.00000000000000E+00     0.00000000000000E+00     0.00000000000000E+00
   O       0.00000000000000E+00     0.00000000000000E+00     0.00000000000000E+00
   Zr      0.00000000000000E+00     0.00000000000000E+00     0.00000000000000E+00
   Zr      0.00000000000000E+00     0.00000000000000E+00     0.00000000000000E+00
   Zr      0.00000000000000E+00     0.00000000000000E+00     0.00000000000000E+00
   Zr      0.00000000000000E+00     0.00000000000000E+00     0.00000000000000E+00
   Zr      0.00000000000000E+00     0.00000000000000E+00     0.00000000000000E+00
   Zr      0.00000000000000E+00     0.00000000000000E+00     0.00000000000000E+00
   Zr      0.00000000000000E+00     0.00000000000000E+00     0.00000000000000E+00
   Zr      0.00000000000000E+00     0.00000000000000E+00     0.00000000000000E+00
   Zr      0.00000000000000E+00     0.00000000000000E+00     0.00000000000000E+00
   Zr      0.00000000000000E+00     0.00000000000000E+00     0.00000000000000E+00
   Zr      0.00000000000000E+00     0.00000000000000E+00     0.00000000000000E+00
   Zr      0.00000000000000E+00     0.00000000000000E+00     0.00000000000000E+00
   Zr      0.00000000000000E+00     0.00000000000000E+00     0.00000000000000E+00
   Zr      0.00000000000000E+00     0.00000000000000E+00     0.00000000000000E+00
   Zr      0.00000000000000E+00     0.00000000000000E+00     0.00000000000000E+00
   Zr      0.00000000000000E+00     0.00000000000000E+00     0.00000000000000E+00
   Zr      0.00000000000000E+00     0.00000000000000E+00     0.00000000000000E+00
   Zr      0.00000000000000E+00     0.00000000000000E+00     0.00000000000000E+00
   Zr      0.00000000000000E+00     0.00000000000000E+00     0.00000000000000E+00
   Zr      0.00000000000000E+00     0.00000000000000E+00     0.00000000000000E+00
   Zr      0.00000000000000E+00     0.00000000000000E+00     0.00000000000000E+00
   Zr      0.00000000000000E+00     0.00000000000000E+00     0.00000000000000E+00
   Zr      0.00000000000000E+00     0.00000000000000E+00     0.00000000000000E+00
   Zr      0.00000000000000E+00     0.00000000000000E+00     0.00000000000000E+00
   Zr      0.00000000000000E+00     0.00000000000000E+00     0.00000000000000E+00
   Zr      0.00000000000000E+00     0.00000000000000E+00     0.00000000000000E+00
   Zr      0.00000000000000E+00     0.00000000000000E+00     0.00000000000000E+00
   Zr      0.00000000000000E+00     0.00000000000000E+00     0.00000000000000E+00
   Zr      0.00000000000000E+00     0.00000000000000E+00     0.00000000000000E+00
   Zr      0.00000000000000E+00     0.00000000000000E+00     0.00000000000000E+00
   Zr      0.00000000000000E+00     0.00000000000000E+00     0.00000000000000E+00
   Zr      0.00000000000000E+00     0.00000000000000E+00     0.00000000000000E+00
   Zr      0.00000000000000E+00     0.00000000000000E+00     0.00000000000000E+00
   Zr      0.00000000000000E+00     0.00000000000000E+00     0.00000000000000E+00
   Zr      0.00000000000000E+00     0.00000000000000E+00     0.00000000000000E+00
   Zr      0.00000000000000E+00     0.00000000000000E+00     0.00000000000000E+00
   Zr      0.00000000000000E+00     0.00000000000000E+00     0.00000000000000E+00
   Zr      0.00000000000000E+00     0.00000000000000E+00     0.00000000000000E+00
   Zr      0.00000000000000E+00     0.00000000000000E+00     0.00000000000000E+00
   Zr      0.00000000000000E+00     0.00000000000000E+00     0.00000000000000E+00
   Zr      0.00000000000000E+00     0.00000000000000E+00     0.00000000000000E+00
   Zr      0.00000000000000E+00     0.00000000000000E+00     0.00000000000000E+00
   Zr      0.00000000000000E+00     0.00000000000000E+00     0.00000000000000E+00
   Zr      0.00000000000000E+00     0.00000000000000E+00     0.00000000000000E+00
   Zr      0.00000000000000E+00     0.00000000000000E+00     0.00000000000000E+00
   Zr      0.00000000000000E+00     0.00000000000000E+00     0.00000000000000E+00
   Zr      0.00000000000000E+00     0.00000000000000E+00     0.00000000000000E+00
   Zr      0.00000000000000E+00     0.00000000000000E+00     0.00000000000000E+00
   O       0.00000000000000E+00     0.00000000000000E+00     0.00000000000000E+00
   O       0.00000000000000E+00     0.00000000000000E+00     0.00000000000000E+00
   O       0.00000000000000E+00     0.00000000000000E+00     0.00000000000000E+00
   O       0.00000000000000E+00     0.00000000000000E+00     0.00000000000000E+00
   O       0.00000000000000E+00     0.00000000000000E+00     0.00000000000000E+00
   O       0.00000000000000E+00     0.00000000000000E+00     0.00000000000000E+00
   O       0.00000000000000E+00     0.00000000000000E+00     0.00000000000000E+00
   O       0.00000000000000E+00     0.00000000000000E+00     0.00000000000000E+00
   O       0.00000000000000E+00     0.00000000000000E+00     0.00000000000000E+00
   O       0.00000000000000E+00     0.00000000000000E+00     0.00000000000000E+00
   O       0.00000000000000E+00     0.00000000000000E+00     0.00000000000000E+00
   O       0.00000000000000E+00     0.00000000000000E+00     0.00000000000000E+00
   O       0.00000000000000E+00     0.00000000000000E+00     0.00000000000000E+00
   O       0.00000000000000E+00     0.00000000000000E+00     0.00000000000000E+00
   O       0.00000000000000E+00     0.00000000000000E+00     0.00000000000000E+00
   O       0.00000000000000E+00     0.00000000000000E+00     0.00000000000000E+00
   O       0.00000000000000E+00     0.00000000000000E+00     0.00000000000000E+00
   O       0.00000000000000E+00     0.00000000000000E+00     0.00000000000000E+00
   O       0.00000000000000E+00     0.00000000000000E+00     0.00000000000000E+00
   O       0.00000000000000E+00     0.00000000000000E+00     0.00000000000000E+00
   O       0.00000000000000E+00     0.00000000000000E+00     0.00000000000000E+00
   O       0.00000000000000E+00     0.00000000000000E+00     0.00000000000000E+00
   O       0.00000000000000E+00     0.00000000000000E+00     0.00000000000000E+00
   O       0.00000000000000E+00     0.00000000000000E+00     0.00000000000000E+00
   O       0.00000000000000E+00     0.00000000000000E+00     0.00000000000000E+00
   O       0.00000000000000E+00     0.00000000000000E+00     0.00000000000000E+00
   O       0.00000000000000E+00     0.00000000000000E+00     0.00000000000000E+00
   O       0.00000000000000E+00     0.00000000000000E+00     0.00000000000000E+00
   O       0.00000000000000E+00     0.00000000000000E+00     0.00000000000000E+00
   O       0.00000000000000E+00     0.00000000000000E+00     0.00000000000000E+00
   O       0.00000000000000E+00     0.00000000000000E+00     0.00000000000000E+00
   O       0.00000000000000E+00     0.00000000000000E+00     0.00000000000000E+00
   O       0.00000000000000E+00     0.00000000000000E+00     0.00000000000000E+00
   O       0.00000000000000E+00     0.00000000000000E+00     0.00000000000000E+00
   O       0.00000000000000E+00     0.00000000000000E+00     0.00000000000000E+00
   O       0.00000000000000E+00     0.00000000000000E+00     0.00000000000000E+00
   O       0.00000000000000E+00     0.00000000000000E+00     0.00000000000000E+00
   O       0.00000000000000E+00     0.00000000000000E+00     0.00000000000000E+00
   O       0.00000000000000E+00     0.00000000000000E+00     0.00000000000000E+00
   O       0.00000000000000E+00     0.00000000000000E+00     0.00000000000000E+00
   O       0.00000000000000E+00     0.00000000000000E+00     0.00000000000000E+00
   O       0.00000000000000E+00     0.00000000000000E+00     0.00000000000000E+00
   O       0.00000000000000E+00     0.00000000000000E+00     0.00000000000000E+00
   O       0.00000000000000E+00     0.00000000000000E+00     0.00000000000000E+00
   O       0.00000000000000E+00     0.00000000000000E+00     0.00000000000000E+00
   O       0.00000000000000E+00     0.00000000000000E+00     0.00000000000000E+00
   O       0.00000000000000E+00     0.00000000000000E+00     0.00000000000000E+00
   O       0.00000000000000E+00     0.00000000000000E+00     0.00000000000000E+00
 


   Partial temperatures (for each ionic specie) 
   Species  Temp (K)   Mean Square Displacement (a.u.)
        1   0.00E+00     0.0000E+00
        2   0.00E+00     0.0000E+00
     10 1074.442394652846588    0.0    0.00   -5444.128473007465   -5444.128473007465   -5444.128473007465   -4369.686078354618   0.0000   0.0000   0.0000   0.0000


   Averaged Physical Quantities
                      accumulated      this run
   ekinc         :     7520.40210    7520.40210 (AU)
   ekin          :    11137.95413   11137.95413 (AU)
   epot          :    -2197.06452   -2197.06452 (AU)
   total energy  :     9617.16637    9617.16637 (AU)
   temperature   :        0.00000       0.00000 (K )
   enthalpy      :     9617.16637    9617.16637 (AU)
   econs         :     9617.16637    9617.16637 (AU)
   pressure      :        0.00000       0.00000 (Gpa)
   volume        :    83585.16658   83585.16658 (AU)



     Called by MAIN_LOOP:
     initialize   :     86.55s CPU    101.49s WALL (       1 calls)
     main_loop    :    187.26s CPU    215.65s WALL (      10 calls)
     cpr_total    :    187.28s CPU    215.68s WALL (       1 calls)

     Called by INIT_RUN:

     Called by CPR:
     cpr_md       :    187.28s CPU    215.68s WALL (      10 calls)
     move_electro :    123.56s CPU    141.32s WALL (      10 calls)

     Called by move_electrons:
     rhoofr       :     27.15s CPU     28.96s WALL (      11 calls)
     vofrho       :      6.54s CPU      7.63s WALL (      11 calls)
     dforce       :     61.65s CPU     75.31s WALL (    1089 calls)
     calphi       :      6.51s CPU      7.88s WALL (      11 calls)
     newd         :     13.45s CPU     13.59s WALL (      11 calls)

     Called by ortho:
     ortho_iter   :      3.03s CPU      3.64s WALL (      11 calls)
     rsg          :      1.95s CPU      2.64s WALL (      11 calls)
     rhoset       :      3.45s CPU      4.38s WALL (      11 calls)
     sigset       :      3.18s CPU      4.02s WALL (      11 calls)
     tauset       :      3.42s CPU      4.30s WALL (      11 calls)
     ortho        :     36.75s CPU     45.55s WALL (      11 calls)
     updatc       :      5.48s CPU      6.51s WALL (      11 calls)

     Small boxes:
     rhov         :      1.07s CPU      1.21s WALL (      11 calls)
     fftb         :      3.54s CPU      3.62s WALL (  130418 calls)
     set_cc       :      0.10s CPU      0.18s WALL (      11 calls)

     Low-level routines:
     prefor       :      8.09s CPU      8.13s WALL (      11 calls)
     nlsm1        :     32.14s CPU     32.25s WALL (      12 calls)
     nlsm1us      :     20.62s CPU     24.80s WALL (      22 calls)
     fft          :      4.84s CPU      5.20s WALL (     110 calls)
                                        0.56s GPU  (      33 calls)
     ffts         :      0.33s CPU      0.39s WALL (      22 calls)
                                        0.09s GPU  (      11 calls)
     fftw         :     50.91s CPU     59.22s WALL (    3267 calls)
                                       56.53s GPU  (    3267 calls)
     betagx       :      0.45s CPU      0.45s WALL (       1 calls)
     qradx        :      0.26s CPU      0.26s WALL (       1 calls)
     gram         :     33.48s CPU     41.30s WALL (       1 calls)
     nlinit       :      0.78s CPU      0.81s WALL (       1 calls)
     init_dim     :      0.47s CPU      0.53s WALL (       1 calls)
     newnlinit    :      0.02s CPU      0.02s WALL (       1 calls)
     from_scratch :     83.55s CPU     95.08s WALL (       1 calls)
     strucf       :      0.01s CPU      0.02s WALL (       1 calls)
     calbec       :     32.14s CPU     32.25s WALL (      12 calls)
     exch_corr    :      4.17s CPU      4.91s WALL (      11 calls)
 
 
     CP           :   4m34.00s CPU   5m17.35s WALL

 
   This run was terminated on:   8: 8: 7  30Apr2023            

=------------------------------------------------------------------------------=
   JOB DONE.
=------------------------------------------------------------------------------=
##IPMv2.0.6########################################################
#
# command   : /jet/home/hpeng1/qe_john/builds/qe-7.1-PSC-ompi-O3-with-scalapack-21.9/bin/cp.x -inp ./cp.in 
# start     : Sun Apr 30 08:02:49 2023   host      : v005.ib.bridges 
# stop      : Sun Apr 30 08:08:09 2023   wallclock : 319.37
# mpi_tasks : 4 on 1 nodes               %comm     : 0.00
# mem [GB]  : 36.25                      gflop/sec : 0.00
#
#           :       [total]        <avg>          min          max
# wallclock :       1277.46       319.36       319.36       319.37 
# MPI       :          0.00         0.00         0.00         0.00 
# %wall     :
#   MPI     :                       0.00         0.00         0.00 
# #calls    :
#   MPI     :            20            5            2           14
# mem [GB]  :         36.25         9.06         9.00         9.25 
#
#                             [time]        [count]        <%wall>
# MPI_Comm_free                 0.00              4           0.00
# MPI_Comm_create               0.00              1           0.00
# MPI_Comm_split                0.00              2           0.00
# MPI_Comm_dup                  0.00              1           0.00
# MPI_Comm_group                0.00              1           0.00
# MPI_Comm_size                 0.00              1           0.00
# MPI_Init                      0.00              4           0.00
# MPI_Finalize                  0.00              4           0.00
# MPI_Comm_rank                 0.00              2           0.00
#
###################################################################
